  40  40   0   0
  0.1988165E+02  0.7957762E-09  0.7957762E-09  0.1255829E-08  0.5000000E-15
  1.000000000000000E-004
  CAR 
 unknown system                          
     12.18827272    -18.70690836  301      6.04580503      1.00000000
    -18.707  0.0000E+00  0.0000E+00
    -18.604  0.0000E+00  0.0000E+00
    -18.501  0.0000E+00  0.0000E+00
    -18.398  0.0000E+00  0.0000E+00
    -18.295  0.0000E+00  0.0000E+00
    -18.192  0.0000E+00  0.0000E+00
    -18.089  0.0000E+00  0.0000E+00
    -17.986  0.0000E+00  0.0000E+00
    -17.883  0.0000E+00  0.0000E+00
    -17.780  0.0000E+00  0.0000E+00
    -17.677  0.0000E+00  0.0000E+00
    -17.574  0.8970E-15  0.9238E-16
    -17.471  0.2052E-06  0.2113E-07
    -17.368  0.1723E-01  0.1775E-02
    -17.265  0.1347E+01  0.1405E+00
    -17.162  0.3420E+01  0.4927E+00
    -17.059  0.9751E+01  0.1497E+01
    -16.956  0.1001E+01  0.1600E+01
    -16.853  0.2879E-03  0.1600E+01
    -16.750  0.3736E-10  0.1600E+01
    -16.647  0.0000E+00  0.1600E+01
    -16.544  0.0000E+00  0.1600E+01
    -16.441  0.0000E+00  0.1600E+01
    -16.338  0.0000E+00  0.1600E+01
    -16.235  0.0000E+00  0.1600E+01
    -16.132  0.0000E+00  0.1600E+01
    -16.029  0.0000E+00  0.1600E+01
    -15.926  0.0000E+00  0.1600E+01
    -15.823  0.0000E+00  0.1600E+01
    -15.720  0.0000E+00  0.1600E+01
    -15.617  0.0000E+00  0.1600E+01
    -15.514  0.0000E+00  0.1600E+01
    -15.411  0.0000E+00  0.1600E+01
    -15.308  0.0000E+00  0.1600E+01
    -15.205  0.0000E+00  0.1600E+01
    -15.102  0.0000E+00  0.1600E+01
    -14.999  0.0000E+00  0.1600E+01
    -14.897  0.0000E+00  0.1600E+01
    -14.794  0.0000E+00  0.1600E+01
    -14.691  0.0000E+00  0.1600E+01
    -14.588  0.0000E+00  0.1600E+01
    -14.485  0.0000E+00  0.1600E+01
    -14.382  0.0000E+00  0.1600E+01
    -14.279  0.0000E+00  0.1600E+01
    -14.176  0.0000E+00  0.1600E+01
    -14.073  0.0000E+00  0.1600E+01
    -13.970  0.0000E+00  0.1600E+01
    -13.867  0.0000E+00  0.1600E+01
    -13.764  0.0000E+00  0.1600E+01
    -13.661  0.0000E+00  0.1600E+01
    -13.558  0.6732E-10  0.1600E+01
    -13.455  0.4024E-04  0.1600E+01
    -13.352  0.1202E-01  0.1601E+01
    -13.249  0.7010E-01  0.1608E+01
    -13.146  0.1088E+00  0.1620E+01
    -13.043  0.3528E-01  0.1623E+01
    -12.940  0.1245E+00  0.1636E+01
    -12.837  0.1552E+00  0.1652E+01
    -12.734  0.1382E-01  0.1654E+01
    -12.631  0.1021E+00  0.1664E+01
    -12.528  0.2006E+00  0.1685E+01
    -12.425  0.8538E-01  0.1693E+01
    -12.322  0.1627E+00  0.1710E+01
    -12.219  0.2684E-01  0.1713E+01
    -12.116  0.2485E+00  0.1739E+01
    -12.013  0.2454E+00  0.1764E+01
    -11.910  0.1993E+00  0.1784E+01
    -11.807  0.1513E+00  0.1800E+01
    -11.704  0.4406E+00  0.1845E+01
    -11.601  0.1210E+00  0.1858E+01
    -11.498  0.9251E-01  0.1867E+01
    -11.395  0.2510E+00  0.1893E+01
    -11.292  0.8314E-01  0.1902E+01
    -11.189  0.1488E+00  0.1917E+01
    -11.086  0.2810E-01  0.1920E+01
    -10.983  0.1861E-03  0.1920E+01
    -10.880  0.1122E-08  0.1920E+01
    -10.777  0.0000E+00  0.1920E+01
    -10.674  0.0000E+00  0.1920E+01
    -10.571  0.0000E+00  0.1920E+01
    -10.468  0.0000E+00  0.1920E+01
    -10.365  0.0000E+00  0.1920E+01
    -10.262  0.0000E+00  0.1920E+01
    -10.159  0.0000E+00  0.1920E+01
    -10.056  0.0000E+00  0.1920E+01
     -9.953  0.0000E+00  0.1920E+01
     -9.850  0.0000E+00  0.1920E+01
     -9.747  0.0000E+00  0.1920E+01
     -9.644  0.0000E+00  0.1920E+01
     -9.541  0.0000E+00  0.1920E+01
     -9.438  0.0000E+00  0.1920E+01
     -9.335  0.0000E+00  0.1920E+01
     -9.232  0.0000E+00  0.1920E+01
     -9.129  0.0000E+00  0.1920E+01
     -9.026  0.0000E+00  0.1920E+01
     -8.923  0.0000E+00  0.1920E+01
     -8.820  0.0000E+00  0.1920E+01
     -8.717  0.0000E+00  0.1920E+01
     -8.614  0.0000E+00  0.1920E+01
     -8.511  0.0000E+00  0.1920E+01
     -8.409  0.0000E+00  0.1920E+01
     -8.306  0.0000E+00  0.1920E+01
     -8.203  0.0000E+00  0.1920E+01
     -8.100  0.0000E+00  0.1920E+01
     -7.997  0.0000E+00  0.1920E+01
     -7.894  0.0000E+00  0.1920E+01
     -7.791  0.0000E+00  0.1920E+01
     -7.688  0.0000E+00  0.1920E+01
     -7.585  0.0000E+00  0.1920E+01
     -7.482  0.0000E+00  0.1920E+01
     -7.379  0.0000E+00  0.1920E+01
     -7.276  0.0000E+00  0.1920E+01
     -7.173  0.0000E+00  0.1920E+01
     -7.070  0.0000E+00  0.1920E+01
     -6.967  0.0000E+00  0.1920E+01
     -6.864  0.2471E-17  0.1920E+01
     -6.761  0.7204E-09  0.1920E+01
     -6.658  0.5947E-04  0.1920E+01
     -6.555  0.3567E-02  0.1920E+01
     -6.452  0.2195E-01  0.1923E+01
     -6.349  0.4777E-01  0.1928E+01
     -6.246  0.3893E-01  0.1932E+01
     -6.143  0.5537E-01  0.1937E+01
     -6.040  0.1235E+00  0.1950E+01
     -5.937  0.7413E-01  0.1958E+01
     -5.834  0.9337E-01  0.1967E+01
     -5.731  0.9649E-01  0.1977E+01
     -5.628  0.1364E+00  0.1991E+01
     -5.525  0.1272E+00  0.2004E+01
     -5.422  0.1603E+00  0.2021E+01
     -5.319  0.1355E+00  0.2035E+01
     -5.216  0.1827E+00  0.2054E+01
     -5.113  0.1406E+00  0.2068E+01
     -5.010  0.9884E-01  0.2078E+01
     -4.907  0.1650E+00  0.2095E+01
     -4.804  0.2263E+00  0.2119E+01
     -4.701  0.3614E+00  0.2156E+01
     -4.598  0.3576E+00  0.2193E+01
     -4.495  0.3902E+00  0.2233E+01
     -4.392  0.1691E+00  0.2250E+01
     -4.289  0.8798E-01  0.2259E+01
     -4.186  0.2157E+00  0.2281E+01
     -4.083  0.1787E+00  0.2300E+01
     -3.980  0.8939E-01  0.2309E+01
     -3.877  0.9610E-01  0.2319E+01
     -3.774  0.9500E-01  0.2329E+01
     -3.671  0.9505E-01  0.2339E+01
     -3.568  0.8408E-01  0.2347E+01
     -3.465  0.2822E-02  0.2347E+01
     -3.362  0.1779E-02  0.2348E+01
     -3.259  0.1295E+00  0.2361E+01
     -3.156  0.9781E-01  0.2371E+01
     -3.053  0.6131E-01  0.2377E+01
     -2.950  0.1489E-01  0.2379E+01
     -2.847  0.4260E-01  0.2383E+01
     -2.744  0.3986E-01  0.2387E+01
     -2.641  0.5129E-01  0.2393E+01
     -2.538  0.2605E-01  0.2395E+01
     -2.435  0.2898E-01  0.2398E+01
     -2.332  0.5738E-02  0.2399E+01
     -2.229  0.6943E-02  0.2400E+01
     -2.126  0.2969E-02  0.2400E+01
     -2.024  0.4084E-04  0.2400E+01
     -1.921  0.3326E-09  0.2400E+01
     -1.818  0.8984E-18  0.2400E+01
     -1.715  0.0000E+00  0.2400E+01
     -1.612  0.0000E+00  0.2400E+01
     -1.509  0.0000E+00  0.2400E+01
     -1.406  0.0000E+00  0.2400E+01
     -1.303  0.0000E+00  0.2400E+01
     -1.200  0.0000E+00  0.2400E+01
     -1.097  0.0000E+00  0.2400E+01
     -0.994  0.0000E+00  0.2400E+01
     -0.891  0.0000E+00  0.2400E+01
     -0.788  0.0000E+00  0.2400E+01
     -0.685  0.0000E+00  0.2400E+01
     -0.582  0.0000E+00  0.2400E+01
     -0.479  0.0000E+00  0.2400E+01
     -0.376  0.0000E+00  0.2400E+01
     -0.273  0.0000E+00  0.2400E+01
     -0.170  0.9208E-16  0.2400E+01
     -0.067  0.1021E-07  0.2400E+01
      0.036  0.3781E-03  0.2400E+01
      0.139  0.1971E-01  0.2402E+01
      0.242  0.5905E-01  0.2408E+01
      0.345  0.2672E+00  0.2436E+01
      0.448  0.2715E+00  0.2464E+01
      0.551  0.3618E+00  0.2501E+01
      0.654  0.3370E+00  0.2536E+01
      0.757  0.1635E+00  0.2552E+01
      0.860  0.1350E+00  0.2566E+01
      0.963  0.3470E+00  0.2602E+01
      1.066  0.1798E+00  0.2621E+01
      1.169  0.1658E+00  0.2638E+01
      1.272  0.1190E+00  0.2650E+01
      1.375  0.3668E+00  0.2688E+01
      1.478  0.1557E+00  0.2704E+01
      1.581  0.9311E-01  0.2713E+01
      1.684  0.1627E+00  0.2730E+01
      1.787  0.3439E+00  0.2765E+01
      1.890  0.2990E+00  0.2796E+01
      1.993  0.3119E+00  0.2828E+01
      2.096  0.2258E+00  0.2852E+01
      2.199  0.3047E+00  0.2883E+01
      2.302  0.2615E+00  0.2910E+01
      2.405  0.4035E+00  0.2952E+01
      2.508  0.3488E+00  0.2987E+01
      2.611  0.2585E+00  0.3014E+01
      2.714  0.1974E+00  0.3034E+01
      2.817  0.3094E+00  0.3066E+01
      2.920  0.2257E+00  0.3089E+01
      3.023  0.1216E+00  0.3102E+01
      3.126  0.1791E+00  0.3120E+01
      3.229  0.3527E+00  0.3157E+01
      3.332  0.5041E+00  0.3209E+01
      3.435  0.2739E+00  0.3237E+01
      3.538  0.2568E+00  0.3263E+01
      3.641  0.2550E+00  0.3290E+01
      3.744  0.3378E+00  0.3324E+01
      3.847  0.1578E+00  0.3341E+01
      3.950  0.2048E+00  0.3362E+01
      4.053  0.2507E+00  0.3388E+01
      4.156  0.1299E+00  0.3401E+01
      4.259  0.1524E+00  0.3417E+01
      4.361  0.1522E+00  0.3432E+01
      4.464  0.1533E+00  0.3448E+01
      4.567  0.1885E+00  0.3468E+01
      4.670  0.1164E+00  0.3479E+01
      4.773  0.4431E+00  0.3525E+01
      4.876  0.5178E+00  0.3578E+01
      4.979  0.6447E+00  0.3645E+01
      5.082  0.3734E+00  0.3683E+01
      5.185  0.3401E+00  0.3718E+01
      5.288  0.2070E+00  0.3740E+01
      5.391  0.2606E+00  0.3766E+01
      5.494  0.2898E+00  0.3796E+01
      5.597  0.2221E+00  0.3819E+01
      5.700  0.8352E-01  0.3828E+01
      5.803  0.5006E-01  0.3833E+01
      5.906  0.5318E-01  0.3838E+01
      6.009  0.1513E-01  0.3840E+01
      6.112  0.4741E-03  0.3840E+01
      6.215  0.3444E-02  0.3840E+01
      6.318  0.1586E-02  0.3841E+01
      6.421  0.6525E-02  0.3841E+01
      6.524  0.2103E-03  0.3841E+01
      6.627  0.3474E-02  0.3842E+01
      6.730  0.1517E-01  0.3843E+01
      6.833  0.1584E-02  0.3843E+01
      6.936  0.5224E-02  0.3844E+01
      7.039  0.2407E-01  0.3846E+01
      7.142  0.4045E-01  0.3851E+01
      7.245  0.4122E-01  0.3855E+01
      7.348  0.6217E-01  0.3861E+01
      7.451  0.6269E-01  0.3868E+01
      7.554  0.9681E-01  0.3878E+01
      7.657  0.9523E-01  0.3887E+01
      7.760  0.1106E+00  0.3899E+01
      7.863  0.7606E-01  0.3907E+01
      7.966  0.8163E-01  0.3915E+01
      8.069  0.1006E+00  0.3925E+01
      8.172  0.3185E+00  0.3958E+01
      8.275  0.2816E+00  0.3987E+01
      8.378  0.2091E+00  0.4009E+01
      8.481  0.2125E+00  0.4031E+01
      8.584  0.3435E+00  0.4066E+01
      8.687  0.1547E+00  0.4082E+01
      8.790  0.2192E+00  0.4104E+01
      8.893  0.2093E+00  0.4126E+01
      8.996  0.2262E+00  0.4149E+01
      9.099  0.3013E+00  0.4180E+01
      9.202  0.2520E+00  0.4206E+01
      9.305  0.2468E+00  0.4232E+01
      9.408  0.3135E+00  0.4264E+01
      9.511  0.3558E+00  0.4301E+01
      9.614  0.2683E+00  0.4328E+01
      9.717  0.2206E+00  0.4351E+01
      9.820  0.2457E+00  0.4376E+01
      9.923  0.2471E+00  0.4402E+01
     10.026  0.1704E+00  0.4419E+01
     10.129  0.1965E+00  0.4440E+01
     10.232  0.1935E+00  0.4459E+01
     10.335  0.2226E+00  0.4482E+01
     10.438  0.4249E+00  0.4526E+01
     10.541  0.4571E+00  0.4573E+01
     10.644  0.3857E+00  0.4613E+01
     10.746  0.1968E+00  0.4633E+01
     10.849  0.6497E-01  0.4640E+01
     10.952  0.8075E-03  0.4640E+01
     11.055  0.1719E-07  0.4640E+01
     11.158  0.1348E-15  0.4640E+01
     11.261  0.0000E+00  0.4640E+01
     11.364  0.0000E+00  0.4640E+01
     11.467  0.0000E+00  0.4640E+01
     11.570  0.0000E+00  0.4640E+01
     11.673  0.0000E+00  0.4640E+01
     11.776  0.0000E+00  0.4640E+01
     11.879  0.0000E+00  0.4640E+01
     11.982  0.0000E+00  0.4640E+01
     12.085  0.0000E+00  0.4640E+01
     12.188  0.0000E+00  0.4640E+01
