       N       E                     dE             d eps       ncg     rms          rms(c)
DAV:   1     0.549332766343E+04    0.54933E+04   -0.17630E+05  5568   0.193E+03
DAV:   2     0.918635410471E+03   -0.45747E+04   -0.44375E+04  5576   0.556E+02
DAV:   3    -0.116151720741E+03   -0.10348E+04   -0.96327E+03  6184   0.256E+02
DAV:   4    -0.237935662671E+03   -0.12178E+03   -0.11812E+03  6608   0.802E+01
DAV:   5    -0.243726845734E+03   -0.57912E+01   -0.57125E+01  6792   0.169E+01    0.343E+01
DAV:   6    -0.208969447239E+03    0.34757E+02   -0.15263E+02  7600   0.488E+01    0.143E+01
DAV:   7    -0.208454358084E+03    0.51509E+00   -0.29134E+01  6152   0.116E+01    0.802E+00
DAV:   8    -0.208605954485E+03   -0.15160E+00   -0.58937E+00  7648   0.483E+00    0.339E+00
DAV:   9    -0.208539828063E+03    0.66126E-01   -0.60525E-01  7408   0.243E+00    0.151E+00
DAV:  10    -0.208526205607E+03    0.13622E-01   -0.19127E-01  7040   0.137E+00    0.399E-01
DAV:  11    -0.208528686369E+03   -0.24808E-02   -0.22641E-02  7576   0.312E-01    0.334E-01
DAV:  12    -0.208529920373E+03   -0.12340E-02   -0.76229E-03  7608   0.187E-01    0.167E-01
DAV:  13    -0.208529877018E+03    0.43355E-04   -0.70298E-04  6512   0.933E-02    0.923E-02
DAV:  14    -0.208529819635E+03    0.57383E-04   -0.32551E-04  6712   0.376E-02    0.417E-02
DAV:  15    -0.208529803166E+03    0.16469E-04   -0.54885E-05  8128   0.144E-02    0.186E-02
DAV:  16    -0.208529800907E+03    0.22595E-05   -0.43606E-06  6488   0.588E-03    0.114E-02
DAV:  17    -0.208529798694E+03    0.22127E-05   -0.13488E-05  7640   0.785E-03    0.516E-03
DAV:  18    -0.208529798493E+03    0.20106E-06   -0.14516E-06  6512   0.317E-03    0.218E-03
DAV:  19    -0.208529798699E+03   -0.20579E-06   -0.16203E-07  5712   0.837E-04    0.138E-03
DAV:  20    -0.208529798795E+03   -0.96119E-07   -0.56174E-08  5320   0.517E-04    0.571E-04
DAV:  21    -0.208529798848E+03   -0.52863E-07   -0.19691E-08  4112   0.332E-04    0.100E-04
DAV:  22    -0.208529798861E+03   -0.13248E-07   -0.39033E-09  3400   0.223E-04    0.924E-05
DAV:  23    -0.208529798853E+03    0.79017E-08   -0.10834E-09  3384   0.126E-04
   1 F= -.20852980E+03 E0= -.20852980E+03  d E =-.208530E+03
       N       E                     dE             d eps       ncg     rms          rms(c)
DAV:   1    -0.208529798846E+03    0.15476E-07   -0.23545E-08  4296   0.335E-04    0.293E-05
DAV:   2    -0.208529798844E+03    0.11578E-08   -0.11455E-09  3360   0.133E-04    0.170E-05
DAV:   3    -0.208529798842E+03    0.22210E-08   -0.28419E-10  3360   0.808E-05    0.102E-05
DAV:   4    -0.208529798842E+03    0.36925E-09   -0.11937E-10  3352   0.449E-05    0.747E-06
DAV:   5    -0.208529798842E+03   -0.36925E-09   -0.57050E-11  3312   0.321E-05
   2 F= -.20852980E+03 E0= -.20852980E+03  d E =0.109530E-07
       N       E                     dE             d eps       ncg     rms          rms(c)
DAV:   1    -0.208529798842E+03    0.34379E-09   -0.34721E-09  3280   0.134E-04    0.126E-05
DAV:   2    -0.208529798842E+03   -0.42837E-09   -0.37135E-10  3240   0.713E-05    0.869E-06
DAV:   3    -0.208529798842E+03    0.18736E-09   -0.87597E-11  3224   0.453E-05    0.392E-06
DAV:   4    -0.208529798842E+03    0.66393E-10   -0.48752E-11  3216   0.246E-05    0.395E-06
DAV:   5    -0.208529798842E+03   -0.27376E-09   -0.22009E-11  3200   0.182E-05
   3 F= -.20852980E+03 E0= -.20852980E+03  d E =0.112177E-07
       N       E                     dE             d eps       ncg     rms          rms(c)
DAV:   1    -0.208529798841E+03    0.36198E-09   -0.15536E-09  3192   0.888E-05    0.877E-06
DAV:   2    -0.208529798842E+03   -0.31559E-09   -0.16182E-10  3192   0.500E-05    0.606E-06
DAV:   3    -0.208529798841E+03    0.97043E-09   -0.47353E-11  3176   0.293E-05    0.254E-06
DAV:   4    -0.208529798841E+03   -0.22101E-09   -0.21796E-11  3168   0.178E-05    0.245E-06
DAV:   5    -0.208529798841E+03   -0.54570E-10   -0.17822E-11  3128   0.115E-05
   4 F= -.20852980E+03 E0= -.20852980E+03  d E =0.122327E-07
