 vasp.6.4.3 19Mar24 (build Apr 09 2025 20:43:19) complex                        
  
 executed on             LinuxIFC date 2025.04.14  10:33:39
 running   36 mpi-ranks, on    1 nodes
 distrk:  each k-point on   36 cores,    1 groups
 distr:  one band on NCORE=   9 cores,    4 groups


--------------------------------------------------------------------------------------------------------


 INCAR:
   PREC = Accurate
   IBRION = 2
   NSW = 100
   NELMIN = 5
   ISIF = 2
   ENCUT = 520
   EDIFF = 1.000000e-08
   EDIFFG = -1.000000e-5
   ISMEAR = 0
   SIGMA = 0.05
   IALGO = 38
   LREAL = .FALSE.
   ADDGRID = .TRUE.
   LWAVE = .FALSE.
   LCHARG = .FALSE.
   NCORE = 9

 POTCAR:    PAW_PBE Bi_d 06Sep2000                
 POTCAR:    PAW_PBE Se 06Sep2000                  
 POTCAR:    PAW_PBE O 08Apr2002                   
 POTCAR:    PAW_PBE S 06Sep2000                   
 POTCAR:    PAW_PBE Bi_d 06Sep2000                
   SHA256 =  572e7eac3f9482ff025db24f2820381a7a3856069fa85913dc654793f618f69a Bi_d/POTCAR           
   COPYR  = (c) Copyright 06Sep2000 Georg Kresse                                                    
   COPYR  = This file is part of the software VASP. Any use, copying, and all other rights are regul
   COPYR  = If you do not have a valid VASP license, you may not use, copy or distribute this file. 
   VRHFIN =Bi:                                                                                      
   LEXCH  = PE                                                                                      
   EATOM  =  1959.2045 eV,  143.9975 Ry                                                             
                                                                                                    
   TITEL  = PAW_PBE Bi_d 06Sep2000                                                                  
   LULTRA =        F    use ultrasoft PP ?                                                          
   IUNSCR =        1    unscreen: 0-lin 1-nonlin 2-no                                               
   RPACOR =    2.200    partial core radius                                                         
   POMASS =  208.980; ZVAL   =   15.000    mass and valenz                                          
   RCORE  =    2.500    outmost cutoff radius                                                       
   RWIGS  =    3.090; RWIGS  =    1.635    wigner-seitz radius (au A)                               
   ENMAX  =  242.839; ENMIN  =  182.129 eV                                                          
   ICORE  =        3    local potential                                                             
   LCOR   =        T    correct aug charges                                                         
   LPAW   =        T    paw PP                                                                      
   EAUG   =  442.899                                                                                
   DEXC   =    0.000                                                                                
   RMAX   =    2.551    core radius for proj-oper                                                   
   RAUG   =    1.300    factor for augmentation sphere                                              
   RDEP   =    2.650    radius for radial grids                                                     
   RDEPT  =    2.039    core radius for aug-charge                                                  
                                                                                                    
   Atomic configuration                                                                             
   16 entries                                                                                       
     n  l   j            E        occ.                                                              
     1  0  0.50    -90639.6581   2.0000                                                             
     2  0  0.50    -16282.4666   2.0000                                                             
     2  1  1.50    -13922.8286   6.0000                                                             
     3  0  0.50     -3930.4763   2.0000                                                             
     3  1  1.50     -3256.7013   6.0000                                                             
     3  2  2.50     -2581.6168  10.0000                                                             
     4  0  0.50      -902.2614   2.0000                                                             
     4  1  1.50      -681.5915   6.0000                                                             
     4  2  2.50      -429.8249  10.0000                                                             
     4  3  3.50      -152.6004  14.0000                                                             
     5  0  0.50      -157.7156   2.0000                                                             
     5  1  1.50       -95.8054   6.0000                                                             
     5  2  2.50       -27.0806  10.0000                                                             
     6  0  0.50       -14.4732   2.0000                                                             
     6  1  1.50        -4.5702   3.0000                                                             
     5  3  2.50        -2.7212   0.0000                                                             
   Description                                                                                      
     l       E           TYP  RCUT    TYP  RCUT                                                     
     2    -27.0805982     23  2.500                                                                 
     2     -1.3605826     23  2.500                                                                 
     0    -14.4732271     23  2.500                                                                 
     0      6.8029130     23  2.500                                                                 
     1     -4.5701651     23  2.500                                                                 
     1     13.6058260     23  2.500                                                                 
     3     -1.3605826      7  2.500                                                                 
  local pseudopotential read in
  partial core-charges read in
  partial kinetic energy density read in
  atomic valenz-charges read in
  non local Contribution for L=           2  read in
    real space projection operators read in
  non local Contribution for L=           2  read in
    real space projection operators read in
  non local Contribution for L=           0  read in
    real space projection operators read in
  non local Contribution for L=           0  read in
    real space projection operators read in
  non local Contribution for L=           1  read in
    real space projection operators read in
  non local Contribution for L=           1  read in
    real space projection operators read in
    PAW grid and wavefunctions read in
 
   number of l-projection  operators is LMAX  =           6
   number of lm-projection operators is LMMAX =          18
 
 POTCAR:    PAW_PBE Se 06Sep2000                  
   SHA256 =  eabb916e6b4c819dc065ce039373bc328651da483898f08fb9e49c498452bf12 Se/POTCAR             
   COPYR  = (c) Copyright 06Sep2000 Georg Kresse                                                    
   COPYR  = This file is part of the software VASP. Any use, copying, and all other rights are regul
   COPYR  = If you do not have a valid VASP license, you may not use, copy or distribute this file. 
   VRHFIN =Se: s2p4                                                                                 
   LEXCH  = PE                                                                                      
   EATOM  =   257.1286 eV,   18.8984 Ry                                                             
                                                                                                    
   TITEL  = PAW_PBE Se 06Sep2000                                                                    
   LULTRA =        F    use ultrasoft PP ?                                                          
   IUNSCR =        1    unscreen: 0-lin 1-nonlin 2-no                                               
   RPACOR =    1.900    partial core radius                                                         
   POMASS =   78.960; ZVAL   =    6.000    mass and valenz                                          
   RCORE  =    2.100    outmost cutoff radius                                                       
   RWIGS  =    2.200; RWIGS  =    1.164    wigner-seitz radius (au A)                               
   ENMAX  =  211.555; ENMIN  =  158.666 eV                                                          
   ICORE  =        3    local potential                                                             
   LCOR   =        T    correct aug charges                                                         
   LPAW   =        T    paw PP                                                                      
   EAUG   =  446.842                                                                                
   DEXC   =    0.000                                                                                
   RMAX   =    2.147    core radius for proj-oper                                                   
   RAUG   =    1.300    factor for augmentation sphere                                              
   RDEP   =    2.177    radius for radial grids                                                     
   RDEPT  =    1.928    core radius for aug-charge                                                  
                                                                                                    
   Atomic configuration                                                                             
   10 entries                                                                                       
     n  l   j            E        occ.                                                              
     1  0  0.50    -12503.4787   2.0000                                                             
     2  0  0.50     -1606.9547   2.0000                                                             
     2  1  1.50     -1413.3140   6.0000                                                             
     3  0  0.50      -213.4885   2.0000                                                             
     3  1  1.50      -152.9538   6.0000                                                             
     3  2  2.50       -53.1221  10.0000                                                             
     4  0  0.50       -17.2865   2.0000                                                             
     4  1  0.50        -6.5110   4.0000                                                             
     4  2  2.50        -6.8029   0.0000                                                             
     4  3  2.50        -6.8029   0.0000                                                             
   Description                                                                                      
     l       E           TYP  RCUT    TYP  RCUT                                                     
     0    -17.2865377     23  2.100                                                                 
     0    -15.3094411     23  2.100                                                                 
     1     -6.5110275     23  2.100                                                                 
     1     -0.0695192     23  2.100                                                                 
     2     -6.8029130     23  2.100                                                                 
     3     -1.3605826      7  2.100                                                                 
  local pseudopotential read in
  partial core-charges read in
  partial kinetic energy density read in
  atomic valenz-charges read in
  non local Contribution for L=           0  read in
    real space projection operators read in
  non local Contribution for L=           0  read in
    real space projection operators read in
  non local Contribution for L=           1  read in
    real space projection operators read in
  non local Contribution for L=           1  read in
    real space projection operators read in
  non local Contribution for L=           2  read in
    real space projection operators read in
    PAW grid and wavefunctions read in
 
   number of l-projection  operators is LMAX  =           5
   number of lm-projection operators is LMMAX =          13
 
 POTCAR:    PAW_PBE O 08Apr2002                   
   SHA256 =  818f92134a0a090dccd8ba1447fa70422a3b330e708bb4f08108d8ae51209ddf O/POTCAR              
   COPYR  = (c) Copyright 08Apr2002 Georg Kresse                                                    
   COPYR  = This file is part of the software VASP. Any use, copying, and all other rights are regul
   COPYR  = If you do not have a valid VASP license, you may not use, copy or distribute this file. 
   VRHFIN =O: s2p4                                                                                  
   LEXCH  = PE                                                                                      
   EATOM  =   432.3788 eV,   31.7789 Ry                                                             
                                                                                                    
   TITEL  = PAW_PBE O 08Apr2002                                                                     
   LULTRA =        F    use ultrasoft PP ?                                                          
   IUNSCR =        1    unscreen: 0-lin 1-nonlin 2-no                                               
   RPACOR =    1.200    partial core radius                                                         
   POMASS =   16.000; ZVAL   =    6.000    mass and valenz                                          
   RCORE  =    1.520    outmost cutoff radius                                                       
   RWIGS  =    1.550; RWIGS  =    0.820    wigner-seitz radius (au A)                               
   ENMAX  =  400.000; ENMIN  =  300.000 eV                                                          
   ICORE  =        2    local potential                                                             
   LCOR   =        T    correct aug charges                                                         
   LPAW   =        T    paw PP                                                                      
   EAUG   =  605.392                                                                                
   DEXC   =    0.000                                                                                
   RMAX   =    1.553    core radius for proj-oper                                                   
   RAUG   =    1.300    factor for augmentation sphere                                              
   RDEP   =    1.550    radius for radial grids                                                     
   RDEPT  =    1.329    core radius for aug-charge                                                  
                                                                                                    
   Atomic configuration                                                                             
    4 entries                                                                                       
     n  l   j            E        occ.                                                              
     1  0  0.50      -514.6923   2.0000                                                             
     2  0  0.50       -23.9615   2.0000                                                             
     2  1  0.50        -9.0305   4.0000                                                             
     3  2  1.50        -9.5241   0.0000                                                             
   Description                                                                                      
     l       E           TYP  RCUT    TYP  RCUT                                                     
     0    -23.9615318     23  1.200                                                                 
     0     -9.5240782     23  1.200                                                                 
     1     -9.0304911     23  1.520                                                                 
     1      8.1634956     23  1.520                                                                 
     2     -9.5240782      7  1.500                                                                 
  local pseudopotential read in
  partial core-charges read in
  partial kinetic energy density read in
  kinetic energy density of atom read in
  atomic valenz-charges read in
  non local Contribution for L=           0  read in
    real space projection operators read in
  non local Contribution for L=           0  read in
    real space projection operators read in
  non local Contribution for L=           1  read in
    real space projection operators read in
  non local Contribution for L=           1  read in
    real space projection operators read in
    PAW grid and wavefunctions read in
 
   number of l-projection  operators is LMAX  =           4
   number of lm-projection operators is LMMAX =           8
 
 POTCAR:    PAW_PBE S 06Sep2000                   
   SHA256 =  0fc7481fb0695f01bdc6462160264c5c84044ae9ec85a907d398b887a2bc3132 S/POTCAR              
   COPYR  = (c) Copyright 06Sep2000 Georg Kresse                                                    
   COPYR  = This file is part of the software VASP. Any use, copying, and all other rights are regul
   COPYR  = If you do not have a valid VASP license, you may not use, copy or distribute this file. 
   VRHFIN =S : s2p4                                                                                 
   LEXCH  = PE                                                                                      
   EATOM  =   276.8230 eV,   20.3459 Ry                                                             
                                                                                                    
   TITEL  = PAW_PBE S 06Sep2000                                                                     
   LULTRA =        F    use ultrasoft PP ?                                                          
   IUNSCR =        1    unscreen: 0-lin 1-nonlin 2-no                                               
   RPACOR =    1.500    partial core radius                                                         
   POMASS =   32.066; ZVAL   =    6.000    mass and valenz                                          
   RCORE  =    1.900    outmost cutoff radius                                                       
   RWIGS  =    2.200; RWIGS  =    1.164    wigner-seitz radius (au A)                               
   ENMAX  =  258.689; ENMIN  =  194.016 eV                                                          
   ICORE  =        2    local potential                                                             
   LCOR   =        T    correct aug charges                                                         
   LPAW   =        T    paw PP                                                                      
   EAUG   =  335.092                                                                                
   DEXC   =    0.000                                                                                
   RMAX   =    1.942    core radius for proj-oper                                                   
   RAUG   =    1.300    factor for augmentation sphere                                              
   RDEP   =    1.954    radius for radial grids                                                     
   RDEPT  =    1.744    core radius for aug-charge                                                  
                                                                                                    
   Atomic configuration                                                                             
    6 entries                                                                                       
     n  l   j            E        occ.                                                              
     1  0  0.50     -2405.8406   2.0000                                                             
     2  0  0.50      -211.7007   2.0000                                                             
     2  1  1.50      -156.4958   6.0000                                                             
     3  0  0.50       -17.2562   2.0000                                                             
     3  1  0.50        -7.0085   4.0000                                                             
     3  2  1.50        -6.8029   0.0000                                                             
   Description                                                                                      
     l       E           TYP  RCUT    TYP  RCUT                                                     
     0    -17.2561641     23  1.900                                                                 
     0    -15.8743224     23  1.900                                                                 
     1     -7.0085400     23  1.900                                                                 
     1     -2.7779785     23  1.900                                                                 
     2     -6.8029130     23  1.900                                                                 
  local pseudopotential read in
  partial core-charges read in
  partial kinetic energy density read in
  atomic valenz-charges read in
  non local Contribution for L=           0  read in
    real space projection operators read in
  non local Contribution for L=           0  read in
    real space projection operators read in
  non local Contribution for L=           1  read in
    real space projection operators read in
  non local Contribution for L=           1  read in
    real space projection operators read in
    PAW grid and wavefunctions read in
 
   number of l-projection  operators is LMAX  =           4
   number of lm-projection operators is LMMAX =           8
 
 -----------------------------------------------------------------------------
|                                                                             |
|               ----> ADVICE to this user running VASP <----                  |
|                                                                             |
|     You have a (more or less) 'large supercell' and for larger cells it     |
|     might be more efficient to use real-space projection operators.         |
|     Therefore, try LREAL= Auto in the INCAR file.                           |
|     Mind: For very accurate calculation, you might also keep the            |
|     reciprocal projection scheme (i.e. LREAL=.FALSE.).                      |
|                                                                             |
 -----------------------------------------------------------------------------

  PAW_PBE Bi_d 06Sep2000                :
 energy of atom  1       EATOM=-1959.2045
 kinetic energy error for atom=    0.0040 (will be added to EATOM!!)
  PAW_PBE Se 06Sep2000                  :
 energy of atom  2       EATOM= -257.1286
 kinetic energy error for atom=    0.0007 (will be added to EATOM!!)
  PAW_PBE O 08Apr2002                   :
 energy of atom  3       EATOM= -432.3788
 kinetic energy error for atom=    0.0208 (will be added to EATOM!!)
  PAW_PBE S 06Sep2000                   :
 energy of atom  4       EATOM= -276.8230
 kinetic energy error for atom=    0.0016 (will be added to EATOM!!)
 
 
 POSCAR: generated by phonopy
  positions in direct lattice
  velocities in cartesian coordinates


 exchange-correlation table for PE
   RHO(1)=    0.500       N(1)  =     2000
   RHO(2)=  100.500       N(2)  =     4000
 


--------------------------------------------------------------------------------------------------------


 ion  position               nearest neighbor table
   1  0.249  0.249  0.852-  24 2.36  28 2.36  25 2.36  30 2.36  13 3.72   5 3.79   7 3.79   6 3.79
                             8 3.79
   2  0.751  0.249  0.852-  24 2.36  29 2.36  25 2.36  31 2.36  14 3.72   5 3.79   7 3.79   6 3.79
                             8 3.79
   3  0.249  0.751  0.852-  26 2.36  28 2.36  27 2.36  30 2.36  15 3.72   5 3.79   7 3.79   6 3.79
                             8 3.79
   4  0.751  0.751  0.852-  26 2.36  29 2.36  27 2.36  31 2.36  16 3.72   5 3.79   7 3.79   6 3.79
                             8 3.79
   5  0.000  0.000  0.649-  24 2.36  26 2.36  28 2.36  29 2.36   9 3.74   2 3.79   3 3.79   4 3.79
                             1 3.79
   6  0.500  0.000  0.650-  28 2.36  29 2.36  25 2.36  27 2.36  10 3.76   2 3.79   3 3.79   4 3.79
                             1 3.79
   7  0.000  0.500  0.650-  24 2.36  26 2.36  30 2.36  31 2.36  11 3.76   2 3.79   3 3.79   4 3.79
                             1 3.79
   8  0.500  0.500  0.651-  25 2.36  27 2.36  30 2.36  31 2.36  12 3.78   2 3.79   3 3.79   4 3.79
                             1 3.79
   9  0.000  0.000  0.351-  32 2.36  33 2.36  36 2.36  38 2.36   5 3.74  13 3.79  14 3.79  15 3.79
                            16 3.79
  10  0.500  0.000  0.350-  32 2.36  33 2.36  37 2.36  39 2.36   6 3.76  13 3.79  14 3.79  15 3.79
                            16 3.79
  11  0.000  0.500  0.350-  36 2.36  38 2.36  34 2.36  35 2.36   7 3.76  13 3.79  14 3.79  15 3.79
                            16 3.79
  12  0.500  0.500  0.349-  34 2.36  35 2.36  37 2.36  39 2.36   8 3.78  13 3.79  14 3.79  15 3.79
                            16 3.79
  13  0.249  0.249  0.148-  32 2.36  36 2.36  34 2.36  37 2.36   1 3.72   9 3.79  10 3.79  11 3.79
                            12 3.79
  14  0.751  0.249  0.148-  33 2.36  36 2.36  35 2.36  37 2.36   2 3.72   9 3.79  10 3.79  11 3.79
                            12 3.79
  15  0.249  0.751  0.148-  32 2.36  38 2.36  34 2.36  39 2.36   3 3.72   9 3.79  10 3.79  11 3.79
                            12 3.79
  16  0.751  0.751  0.148-  33 2.36  38 2.36  35 2.36  39 2.36   4 3.72   9 3.79  10 3.79  11 3.79
                            12 3.79
  17  0.500  0.000  0.000-
  18  0.000  0.500  0.000-
  19  0.500  0.500  0.000-
  20  0.250  0.250  0.500-
  21  0.750  0.250  0.500-
  22  0.250  0.750  0.500-
  23  0.750  0.750  0.500-
  24  0.000  0.250  0.751-   1 2.36   2 2.36   7 2.36   5 2.36
  25  0.500  0.250  0.751-   8 2.36   6 2.36   1 2.36   2 2.36
  26  0.000  0.750  0.751-   3 2.36   4 2.36   7 2.36   5 2.36
  27  0.500  0.750  0.751-   8 2.36   6 2.36   3 2.36   4 2.36
  28  0.250  0.000  0.751-   1 2.36   3 2.36   6 2.36   5 2.36
  29  0.750  0.000  0.751-   2 2.36   4 2.36   6 2.36   5 2.36
  30  0.250  0.500  0.751-   8 2.36   7 2.36   1 2.36   3 2.36
  31  0.750  0.500  0.751-   8 2.36   7 2.36   2 2.36   4 2.36
  32  0.250  0.000  0.249-  13 2.36  15 2.36  10 2.36   9 2.36
  33  0.750  0.000  0.249-  14 2.36  16 2.36  10 2.36   9 2.36
  34  0.250  0.500  0.249-  12 2.36  11 2.36  13 2.36  15 2.36
  35  0.750  0.500  0.249-  12 2.36  11 2.36  14 2.36  16 2.36
  36  0.000  0.250  0.249-  13 2.36  14 2.36  11 2.36   9 2.36
  37  0.500  0.250  0.249-  12 2.36  10 2.36  13 2.36  14 2.36
  38  0.000  0.750  0.249-  15 2.36  16 2.36  11 2.36   9 2.36
  39  0.500  0.750  0.249-  12 2.36  10 2.36  15 2.36  16 2.36
  40  0.000  0.000  0.000-
 
  LATTYP: Found a simple tetragonal cell.
 ALAT       =     7.9577614344
 C/A-ratio  =     1.5781187256
  
  Lattice vectors:
  
 A1 = (   7.9577614344,   0.0000000000,   0.0000000000)
 A2 = (   0.0000000000,   7.9577614344,   0.0000000000)
 A3 = (   0.0000000000,   0.0000000000,  12.5582923335)


Analysis of symmetry for initial positions (statically):
=====================================================================
 Subroutine PRICEL returns:
 Original cell was already a primitive cell.
 

 Routine SETGRP: Setting up the symmetry group for a 
 simple tetragonal supercell.


 Subroutine GETGRP returns: Found 16 space group operations
 (whereof 16 operations were pure point group operations)
 out of a pool of 16 trial point group operations.


The static configuration has the point symmetry D_4h.


Analysis of symmetry for dynamics (positions and initial velocities):
=====================================================================
 Subroutine PRICEL returns:
 Original cell was already a primitive cell.
 

 Routine SETGRP: Setting up the symmetry group for a 
 simple tetragonal supercell.


 Subroutine GETGRP returns: Found 16 space group operations
 (whereof 16 operations were pure point group operations)
 out of a pool of 16 trial point group operations.


The dynamic configuration has the point symmetry D_4h.


 Subroutine INISYM returns: Found 16 space group operations
 (whereof 16 operations are pure point group operations),
 and found     1 'primitive' translations


----------------------------------------------------------------------------------------

                                     Primitive cell                                     

  volume of cell :     795.2660

  direct lattice vectors                    reciprocal lattice vectors
     7.957761434  0.000000000  0.000000000     0.125663481  0.000000000  0.000000000
     0.000000000  7.957761434  0.000000000     0.000000000  0.125663481  0.000000000
     0.000000000  0.000000000 12.558292333     0.000000000  0.000000000  0.079628661

  length of vectors
     7.957761434  7.957761434 12.558292333     0.125663481  0.125663481  0.079628661

  position of ions in fractional coordinates (direct lattice)
     0.248985352  0.248985352  0.852076114
     0.751014648  0.248985352  0.852076114
     0.248985352  0.751014648  0.852076114
     0.751014648  0.751014648  0.852076114
     0.000000000  0.000000000  0.648884559
     0.500000000  0.000000000  0.649722970
     0.000000000  0.500000000  0.649722970
     0.500000000  0.500000000  0.650674305
     0.000000000  0.000000000  0.351115441
     0.500000000  0.000000000  0.350277030
     0.000000000  0.500000000  0.350277030
     0.500000000  0.500000000  0.349325695
     0.248985352  0.248985352  0.147923886
     0.751014648  0.248985352  0.147923886
     0.248985352  0.751014648  0.147923886
     0.751014648  0.751014648  0.147923886
     0.500000000  0.000000000  0.000000000
     0.000000000  0.500000000  0.000000000
     0.500000000  0.500000000  0.000000000
     0.249790307  0.249790307  0.500000000
     0.750209693  0.249790307  0.500000000
     0.249790307  0.750209693  0.500000000
     0.750209693  0.750209693  0.500000000
     0.000000000  0.249643141  0.750585310
     0.500000000  0.249779914  0.751285536
     0.000000000  0.750356859  0.750585310
     0.500000000  0.750220086  0.751285536
     0.249643141  0.000000000  0.750585310
     0.750356859  0.000000000  0.750585310
     0.249779914  0.500000000  0.751285536
     0.750220086  0.500000000  0.751285536
     0.249643141  0.000000000  0.249414690
     0.750356859  0.000000000  0.249414690
     0.249779914  0.500000000  0.248714464
     0.750220086  0.500000000  0.248714464
     0.000000000  0.249643141  0.249414690
     0.500000000  0.249779914  0.248714464
     0.000000000  0.750356859  0.249414690
     0.500000000  0.750220086  0.248714464
     0.000000000  0.000000000  0.000000000

  ion indices of the primitive-cell ions
   primitive index   ion index
                 1           1
                 2           2
                 3           3
                 4           4
                 5           5
                 6           6
                 7           7
                 8           8
                 9           9
                10          10
                11          11
                12          12
                13          13
                14          14
                15          15
                16          16
                17          17
                18          18
                19          19
                20          20
                21          21
                22          22
                23          23
                24          24
                25          25
                26          26
                27          27
                28          28
                29          29
                30          30
                31          31
                32          32
                33          33
                34          34
                35          35
                36          36
                37          37
                38          38
                39          39
                40          40

----------------------------------------------------------------------------------------

 
 
 KPOINTS: K-Spacing Value to Generate K-Mesh: 0.03

Automatic generation of k-mesh.
 Grid dimensions read from file:
 generate k-points for:    4    4    3

 Generating k-lattice:

  Cartesian coordinates                     Fractional coordinates (reciprocal lattice)
     0.031415870  0.000000000  0.000000000     0.250000000  0.000000000  0.000000000
     0.000000000  0.031415870  0.000000000     0.000000000  0.250000000  0.000000000
     0.000000000  0.000000000  0.026542887     0.000000000  0.000000000  0.333333333

  Length of vectors
     0.031415870  0.031415870  0.026542887

  Shift w.r.t. Gamma in fractional coordinates (k-lattice)
     0.000000000  0.000000000  0.000000000

 
 Subroutine IBZKPT returns following result:
 ===========================================
 
 Found     12 irreducible k-points:
 
 Following reciprocal coordinates:
            Coordinates               Weight
  0.000000  0.000000  0.000000      1.000000
  0.250000  0.000000  0.000000      4.000000
  0.500000  0.000000  0.000000      2.000000
  0.250000  0.250000  0.000000      4.000000
  0.500000  0.250000  0.000000      4.000000
  0.500000  0.500000  0.000000      1.000000
  0.000000  0.000000  0.333333      2.000000
  0.250000  0.000000  0.333333      8.000000
  0.500000  0.000000  0.333333      4.000000
  0.250000  0.250000  0.333333      8.000000
  0.500000  0.250000  0.333333      8.000000
  0.500000  0.500000  0.333333      2.000000
 
 Following cartesian coordinates:
            Coordinates               Weight
  0.000000  0.000000  0.000000      1.000000
  0.031887  0.000000  0.000000      4.000000
  0.063774  0.000000  0.000000      2.000000
  0.031887  0.031887  0.000000      4.000000
  0.063774  0.031887  0.000000      4.000000
  0.063774  0.063774  0.000000      1.000000
  0.000000  0.000000  0.026941      2.000000
  0.031887  0.000000  0.026941      8.000000
  0.063774  0.000000  0.026941      4.000000
  0.031887  0.031887  0.026941      8.000000
  0.063774  0.031887  0.026941      8.000000
  0.063774  0.063774  0.026941      2.000000
 


--------------------------------------------------------------------------------------------------------




 Dimension of arrays:
   k-points           NKPTS =     12   k-points in BZ     NKDIM =     12   number of bands    NBANDS=    232
   number of dos      NEDOS =    301   number of ions     NIONS =     40
   non local maximal  LDIM  =      6   non local SUM 2l+1 LMDIM =     18
   total plane-waves  NPLWV = 345600
   max r-space proj   IRMAX =      1   max aug-charges    IRDMAX= 153825
   dimension x,y,z NGX =    60 NGY =   60 NGZ =   96
   dimension x,y,z NGXF=   120 NGYF=  120 NGZF=  192
   support grid    NGXF=   240 NGYF=  240 NGZF=  384
   ions per type =              16   7  16   1
   NGX,Y,Z   is equivalent  to a cutoff of  12.53, 12.53, 12.71 a.u.
   NGXF,Y,Z  is equivalent  to a cutoff of  25.07, 25.07, 25.42 a.u.

 SYSTEM =  unknown system                          
 POSCAR =  generated by phonopy                    

 Startparameter for this run:
   NWRITE =      2    write-flag & timer
   PREC   = accura    normal or accurate (medium, high low for compatibility)
   ISTART =      0    job   : 0-new  1-cont  2-samecut
   ICHARG =      2    charge: 1-file 2-atom 10-const
   ISPIN  =      1    spin polarized calculation?
   LNONCOLLINEAR =      F non collinear calculations
   LSORBIT =      F    spin-orbit coupling
   INIWAV =      1    electr: 0-lowe 1-rand  2-diag
   LASPH  =      F    aspherical Exc in radial PAW
 Electronic Relaxation 1
   ENCUT  =  520.0 eV  38.22 Ry    6.18 a.u.  14.80 14.80 23.35*2*pi/ulx,y,z
   ENINI  =  520.0     initial cutoff
   ENAUG  =  605.4 eV  augmentation charge cutoff
   NELM   =     60;   NELMIN=  5; NELMDL= -5     # of ELM steps 
   EDIFF  = 0.1E-07   stopping-criterion for ELM
   LREAL  =      F    real-space projection
   NLSPLINE    = F    spline interpolate recip. space projectors
   LCOMPAT=      F    compatible to vasp.4.4
   GGA_COMPAT  = T    GGA compatible to vasp.4.4-vasp.4.6
   LMAXPAW     = -100 max onsite density
   LMAXMIX     =    2 max onsite mixed and CHGCAR
   VOSKOWN=      0    Vosko Wilk Nusair interpolation
   ROPT   =    0.00000   0.00000   0.00000   0.00000
 Ionic relaxation
   EDIFFG = -.1E-04   stopping-criterion for IOM
   NSW    =    100    number of steps for IOM
   NBLOCK =      1;   KBLOCK =    100    inner block; outer block 
   IBRION =      2    ionic relax: 0-MD 1-quasi-New 2-CG
   NFREE  =      1    steps in history (QN), initial steepest desc. (CG)
   ISIF   =      2    stress and relaxation
   IWAVPR =     11    prediction:  0-non 1-charg 2-wave 3-comb
   ISYM   =      2    0-nonsym 1-usesym 2-fastsym
   LCORR  =      T    Harris-Foulkes like correction to forces

   POTIM  = 0.5000    time-step for ionic-motion
   TEIN   =    0.0    initial temperature
   TEBEG  =    0.0;   TEEND  =   0.0 temperature during run
   SMASS  =  -3.00    Nose mass-parameter (am)
   estimated Nose-frequenzy (Omega)   =  0.10E-29 period in steps = 0.13E+47 mass=  -0.145E-26a.u.
   SCALEE = 1.0000    scale energy and forces
   NPACO  =    256;   APACO  = 10.0  distance and # of slots for P.C.
   PSTRESS=    0.0 pullay stress

  Mass of Ions in am
   POMASS = 208.98 78.96 16.00 32.07
  Ionic Valenz
   ZVAL   =  15.00  6.00  6.00  6.00
  Atomic Wigner-Seitz radii
   RWIGS  =  -1.00 -1.00 -1.00 -1.00
  virtual crystal weights 
   VCA    =   1.00  1.00  1.00  1.00
   NELECT =     384.0000    total number of electrons
   NUPDOWN=      -1.0000    fix difference up-down

 DOS related values:
   EMIN   =  10.00;   EMAX   =-10.00  energy-range for DOS
   EFERMI =   0.00;   METHOD = LEGACY      
   ISMEAR =     0;   SIGMA  =   0.05  broadening in eV -4-tet -1-fermi 0-gaus

 Electronic relaxation 2 (details)
   IALGO  =     38    algorithm
   LDIAG  =      T    sub-space diagonalisation (order eigenvalues)
   LSUBROT=      F    optimize rotation matrix (better conditioning)
   TURBO    =      0    0=normal 1=particle mesh
   IRESTART =      0    0=no restart 2=restart with 2 vectors
   NREBOOT  =      0    no. of reboots
   NMIN     =      0    reboot dimension
   EREF     =   0.00    reference energy to select bands
   IMIX   =      4    mixing-type and parameters
     AMIX     =   0.40;   BMIX     =  1.00
     AMIX_MAG =   1.60;   BMIX_MAG =  1.00
     AMIN     =   0.10
     WC   =   100.;   INIMIX=   1;  MIXPRE=   1;  MAXMIX= -45

 Intra band minimization:
   WEIMIN = 0.0010     energy-eigenvalue tresh-hold
   EBREAK =  0.11E-10  absolut break condition
   DEPER  =   0.30     relativ break condition  

   TIME   =   0.40     timestep for ELM

  volume/ion in A,a.u.               =      19.88       134.17
  Fermi-wavevector in a.u.,A,eV,Ry     =   1.284343  2.427057 22.443320  1.649538
  Thomas-Fermi vector in A             =   2.416543
 
 Write flags
   LWAVE        =      F    write WAVECAR
   LDOWNSAMPLE  =      F    k-point downsampling of WAVECAR
   LCHARG       =      F    write CHGCAR
   LVTOT        =      F    write LOCPOT, total local potential
   LVHAR        =      F    write LOCPOT, Hartree potential only
   WRT_POTENTIAL= false  ! write potential to hdf5 file
   LELF         =      F    write electronic localiz. function (ELF)
   LORBIT       =      0    0 simple, 1 ext, 2 COOP (PROOUT), +10 PAW based schemes


 Dipole corrections
   LMONO      =      F    monopole corrections only (constant potential shift)
   LDIPOL     =      F    correct potential (dipole corrections)
   IDIPOL     =      0    1-x, 2-y, 3-z, 4-all directions 
   EPSILON    =  1.0000000 bulk dielectric constant
   LVACPOTAV  =      F  vacuum potentials using an averaging scheme for the charge density
   VACPOTFLAT =  0.1000000 required flatness to determine vacuum potential
 Exchange correlation treatment:
   GGA     = PE    functional components
   XC_C    = 1    coefficients multiplying the functional components
   LIBXC   =     F    Libxc                    
   VOSKOWN =     0    Vosko Wilk Nusair interpolation
   LHFCALC =     F    Hartree Fock is set to
   LHFONE  =     F    Hartree Fock one center treatment
   AEXX    =    0.0000 exact exchange contribution

 Parameters of functionals:
   PE:
     No parameter
 
 Van der Waals corrections
   IVDW    =     0    specifies the selected vdW correction

 Linear response parameters
   LEPSILON=     F    determine dielectric tensor
   LRPA    =     F    only Hartree local field effects (RPA)
   LNABLA  =     F    use nabla operator in PAW spheres
   LVEL    =     F    velocity operator in full k-point grid
   CSHIFT  =0.1000    complex shift for real part using Kramers Kronig
   OMEGAMAX=  -1.0    maximum frequency
   DEG_THRESHOLD= 0.2000000E-02 threshold for treating states as degnerate
   RTIME   =   -0.100 relaxation time in fs
  (WPLASMAI=    0.000 imaginary part of plasma frequency in eV, 0.658/RTIME)
   DFIELD  = 0.0000000 0.0000000 0.0000000 field for delta impulse in time
 
  Optional k-point grid parameters
   LKPOINTS_OPT  =     F    use optional k-point grid
   KPOINTS_OPT_MODE=     1    mode for optional k-point grid
 
 Orbital magnetization related:
   ORBITALMAG=     F  switch on orbital magnetization
   LCHIMAG   =     F  perturbation theory with respect to B field
   DQ        =  0.001000  dq finite difference perturbation B field
   LLRAUG    =     F  two centre corrections for induced B field
   LBONE     =     F  B-component reconstruction in AE one-centre
   LVGVCALC  =     T  calculate vGv susceptibility
   LVGVAPPL  =     F  apply vGv susceptibility instead of pGv for G=0

 Random number generation:
   RANDOM_GENERATOR = DEFAULT
   PCG_SEED         = not used


--------------------------------------------------------------------------------------------------------


 conjugate gradient relaxation of ions
 charge density and potential will be updated during run
 non-spin polarized calculation
 Variant of blocked Davidson
 Davidson routine will perform the subspace rotation
 perform sub-space diagonalisation
    after iterative eigenvector-optimisation
 modified Broyden-mixing scheme, WC =      100.0
 initial mixing is a Kerker type mixing with AMIX =  0.4000 and BMIX =      1.0000
 Hartree-type preconditioning will be used
 using additional bands           40
 reciprocal scheme for non local part
 use partial core corrections
 calculate Harris-corrections to forces 
   (improved forces if not selfconsistent)
 use gradient corrections 
 use of overlap-Matrix (Vanderbilt PP)
 Gauss-broadening in eV      SIGMA  =   0.05


--------------------------------------------------------------------------------------------------------


  energy-cutoff  :      520.00
  volume of cell :      795.27
      direct lattice vectors                 reciprocal lattice vectors
     7.957761434  0.000000000  0.000000000     0.125663481  0.000000000  0.000000000
     0.000000000  7.957761434  0.000000000     0.000000000  0.125663481  0.000000000
     0.000000000  0.000000000 12.558292333     0.000000000  0.000000000  0.079628661

  length of vectors
     7.957761434  7.957761434 12.558292333     0.125663481  0.125663481  0.079628661


 
 k-points in units of 2pi/SCALE and weight: K-Spacing Value to Generate K-Mesh: 0.03
   0.00000000  0.00000000  0.00000000       0.021
   0.03188711  0.00000000  0.00000000       0.083
   0.06377422  0.00000000  0.00000000       0.042
   0.03188711  0.03188711  0.00000000       0.083
   0.06377422  0.03188711  0.00000000       0.083
   0.06377422  0.06377422  0.00000000       0.021
   0.00000000  0.00000000  0.02694103       0.042
   0.03188711  0.00000000  0.02694103       0.167
   0.06377422  0.00000000  0.02694103       0.083
   0.03188711  0.03188711  0.02694103       0.167
   0.06377422  0.03188711  0.02694103       0.167
   0.06377422  0.06377422  0.02694103       0.042
 
 k-points in reciprocal lattice and weights: K-Spacing Value to Generate K-Mesh: 0.03
   0.00000000  0.00000000  0.00000000       0.021
   0.25000000  0.00000000  0.00000000       0.083
   0.50000000  0.00000000  0.00000000       0.042
   0.25000000  0.25000000  0.00000000       0.083
   0.50000000  0.25000000  0.00000000       0.083
   0.50000000  0.50000000  0.00000000       0.021
   0.00000000  0.00000000  0.33333333       0.042
   0.25000000  0.00000000  0.33333333       0.167
   0.50000000  0.00000000  0.33333333       0.083
   0.25000000  0.25000000  0.33333333       0.167
   0.50000000  0.25000000  0.33333333       0.167
   0.50000000  0.50000000  0.33333333       0.042
 
 position of ions in fractional coordinates (direct lattice) 
   0.24898535  0.24898535  0.85207611
   0.75101465  0.24898535  0.85207611
   0.24898535  0.75101465  0.85207611
   0.75101465  0.75101465  0.85207611
   0.00000000  0.00000000  0.64888456
   0.50000000  0.00000000  0.64972297
   0.00000000  0.50000000  0.64972297
   0.50000000  0.50000000  0.65067431
   0.00000000  0.00000000  0.35111544
   0.50000000  0.00000000  0.35027703
   0.00000000  0.50000000  0.35027703
   0.50000000  0.50000000  0.34932569
   0.24898535  0.24898535  0.14792389
   0.75101465  0.24898535  0.14792389
   0.24898535  0.75101465  0.14792389
   0.75101465  0.75101465  0.14792389
   0.50000000  0.00000000  0.00000000
   0.00000000  0.50000000  0.00000000
   0.50000000  0.50000000  0.00000000
   0.24979031  0.24979031  0.50000000
   0.75020969  0.24979031  0.50000000
   0.24979031  0.75020969  0.50000000
   0.75020969  0.75020969  0.50000000
   0.00000000  0.24964314  0.75058531
   0.50000000  0.24977991  0.75128554
   0.00000000  0.75035686  0.75058531
   0.50000000  0.75022009  0.75128554
   0.24964314  0.00000000  0.75058531
   0.75035686  0.00000000  0.75058531
   0.24977991  0.50000000  0.75128554
   0.75022009  0.50000000  0.75128554
   0.24964314  0.00000000  0.24941469
   0.75035686  0.00000000  0.24941469
   0.24977991  0.50000000  0.24871446
   0.75022009  0.50000000  0.24871446
   0.00000000  0.24964314  0.24941469
   0.50000000  0.24977991  0.24871446
   0.00000000  0.75035686  0.24941469
   0.50000000  0.75022009  0.24871446
   0.00000000  0.00000000  0.00000000
 
 position of ions in cartesian coordinates  (Angst):
   1.98136603  1.98136603 10.70062093
   5.97639540  1.98136603 10.70062093
   1.98136603  5.97639540 10.70062093
   5.97639540  5.97639540 10.70062093
   0.00000000  0.00000000  8.14888198
   3.97888072  0.00000000  8.15941100
   0.00000000  3.97888072  8.15941100
   3.97888072  3.97888072  8.17135814
   0.00000000  0.00000000  4.40941035
   3.97888072  0.00000000  4.39888134
   0.00000000  3.97888072  4.39888134
   3.97888072  3.97888072  4.38693419
   1.98136603  1.98136603  1.85767141
   5.97639540  1.98136603  1.85767141
   1.98136603  5.97639540  1.85767141
   5.97639540  5.97639540  1.85767141
   3.97888072  0.00000000  0.00000000
   0.00000000  3.97888072  0.00000000
   3.97888072  3.97888072  0.00000000
   1.98777167  1.98777167  6.27914617
   5.96998976  1.98777167  6.27914617
   1.98777167  5.96998976  6.27914617
   5.96998976  5.96998976  6.27914617
   0.00000000  1.98660056  9.42606975
   3.97888072  1.98768896  9.43486338
   0.00000000  5.97116088  9.42606975
   3.97888072  5.97007247  9.43486338
   1.98660056  0.00000000  9.42606975
   5.97116088  0.00000000  9.42606975
   1.98768896  3.97888072  9.43486338
   5.97007247  3.97888072  9.43486338
   1.98660056  0.00000000  3.13222258
   5.97116088  0.00000000  3.13222258
   1.98768896  3.97888072  3.12342895
   5.97007247  3.97888072  3.12342895
   0.00000000  1.98660056  3.13222258
   3.97888072  1.98768896  3.12342895
   0.00000000  5.97116088  3.13222258
   3.97888072  5.97007247  3.12342895
   0.00000000  0.00000000  0.00000000
 


--------------------------------------------------------------------------------------------------------


 k-point     1 :   0.0000 0.0000 0.0000  plane waves:   21415
 k-point     2 :   0.2500 0.0000 0.0000  plane waves:   21416
 k-point     3 :   0.5000 0.0000 0.0000  plane waves:   21454
 k-point     4 :   0.2500 0.2500 0.0000  plane waves:   21429
 k-point     5 :   0.5000 0.2500 0.0000  plane waves:   21432
 k-point     6 :   0.5000 0.5000 0.0000  plane waves:   21408
 k-point     7 :   0.0000 0.0000 0.3333  plane waves:   21359
 k-point     8 :   0.2500 0.0000 0.3333  plane waves:   21393
 k-point     9 :   0.5000 0.0000 0.3333  plane waves:   21434
 k-point    10 :   0.2500 0.2500 0.3333  plane waves:   21402
 k-point    11 :   0.5000 0.2500 0.3333  plane waves:   21426
 k-point    12 :   0.5000 0.5000 0.3333  plane waves:   21436

 maximum and minimum number of plane-waves per node :      2404     2325

 maximum number of plane-waves:     21454
 maximum index in each direction: 
   IXMAX=   14   IYMAX=   14   IZMAX=   23
   IXMIN=  -15   IYMIN=  -15   IZMIN=  -23


 parallel 3D FFT for wavefunctions:
    minimum data exchange during FFTs selected (reduces bandwidth)
 parallel 3D FFT for charge:
    minimum data exchange during FFTs selected (reduces bandwidth)


 total amount of memory used by VASP MPI-rank0    96924. kBytes
=======================================================================

   base      :      30000. kBytes
   nonl-proj :      18094. kBytes
   fftplans  :      13006. kBytes
   grid      :       8308. kBytes
   one-center:         77. kBytes
   wavefun   :      27439. kBytes
 
     INWAV:  cpu time      0.0001: real time      0.0001
 Broyden mixing: mesh for mixing (old mesh)
   NGX = 29   NGY = 29   NGZ = 47
  (NGX  =120   NGY  =120   NGZ  =192)
  gives a total of  39527 points

 initial charge density was supplied:
 charge density of overlapping atoms calculated
 number of electron     384.0000000 magnetization 
 keeping initial charge density in first step


--------------------------------------------------------------------------------------------------------


 Maximum index for augmentation-charges         5000 (set IRDMAX)


--------------------------------------------------------------------------------------------------------


 First call to EWALD:  gamma=   0.191
 Maximum number of real-space cells 3x 3x 2
 Maximum number of reciprocal cells 2x 2x 4

    FEWALD:  cpu time      0.0018: real time      0.0018


--------------------------------------- Ionic step        1  -------------------------------------------




--------------------------------------- Iteration      1(   1)  ---------------------------------------


    POTLOK:  cpu time      0.1781: real time      0.1782
    SETDIJ:  cpu time      0.6426: real time      0.6428
     EDDAV:  cpu time     33.4189: real time     33.4238
       DOS:  cpu time      0.0015: real time      0.0016
    --------------------------------------------
      LOOP:  cpu time     34.2411: real time     34.2464

 eigenvalue-minimisations  :  5568
 total energy-change (2. order) : 0.5493328E+04  (-0.1763011E+05)
 number of electron     384.0000000 magnetization 
 augmentation part      384.0000000 magnetization 

 Free energy of the ion-electron system (eV)
  ---------------------------------------------------
  alpha Z        PSCENC =      1270.21168223
  Ewald energy   TEWEN  =    -28802.92373824
  -Hartree energ DENC   =    -11803.65987120
  -exchange      EXHF   =         0.00000000
  -V(xc)+E(xc)   XCENC  =      1230.60540155
  PAW double counting   =     34040.00696010   -33495.80632930
  entropy T*S    EENTRO =        -0.01074955
  eigenvalues    EBANDS =      2713.25246196
  atomic energy  EATOM  =     40341.65184589
  Solvation  Ediel_sol  =         0.00000000
  ---------------------------------------------------
  free energy    TOTEN  =      5493.32766343 eV

  energy without entropy =     5493.33841298  energy(sigma->0) =     5493.33303821


--------------------------------------------------------------------------------------------------------




--------------------------------------- Iteration      1(   2)  ---------------------------------------


     EDDAV:  cpu time     33.4487: real time     33.4606
       DOS:  cpu time      0.0031: real time      0.0033
    --------------------------------------------
      LOOP:  cpu time     33.4519: real time     33.4639

 eigenvalue-minimisations  :  5576
 total energy-change (2. order) :-0.4574692E+04  (-0.4437507E+04)
 number of electron     384.0000000 magnetization 
 augmentation part      384.0000000 magnetization 

 Free energy of the ion-electron system (eV)
  ---------------------------------------------------
  alpha Z        PSCENC =      1270.21168223
  Ewald energy   TEWEN  =    -28802.92373824
  -Hartree energ DENC   =    -11803.65987120
  -exchange      EXHF   =         0.00000000
  -V(xc)+E(xc)   XCENC  =      1230.60540155
  PAW double counting   =     34040.00696010   -33495.80632930
  entropy T*S    EENTRO =        -0.01173380
  eigenvalues    EBANDS =     -1861.43880675
  atomic energy  EATOM  =     40341.65184589
  Solvation  Ediel_sol  =         0.00000000
  ---------------------------------------------------
  free energy    TOTEN  =       918.63541047 eV

  energy without entropy =      918.64714428  energy(sigma->0) =      918.64127737


--------------------------------------------------------------------------------------------------------




--------------------------------------- Iteration      1(   3)  ---------------------------------------


     EDDAV:  cpu time     36.0363: real time     36.0384
       DOS:  cpu time      0.0025: real time      0.0026
    --------------------------------------------
      LOOP:  cpu time     36.0388: real time     36.0410

 eigenvalue-minimisations  :  6184
 total energy-change (2. order) :-0.1034787E+04  (-0.9632696E+03)
 number of electron     384.0000000 magnetization 
 augmentation part      384.0000000 magnetization 

 Free energy of the ion-electron system (eV)
  ---------------------------------------------------
  alpha Z        PSCENC =      1270.21168223
  Ewald energy   TEWEN  =    -28802.92373824
  -Hartree energ DENC   =    -11803.65987120
  -exchange      EXHF   =         0.00000000
  -V(xc)+E(xc)   XCENC  =      1230.60540155
  PAW double counting   =     34040.00696010   -33495.80632930
  entropy T*S    EENTRO =        -0.00000000
  eigenvalues    EBANDS =     -2896.23767176
  atomic energy  EATOM  =     40341.65184589
  Solvation  Ediel_sol  =         0.00000000
  ---------------------------------------------------
  free energy    TOTEN  =      -116.15172074 eV

  energy without entropy =     -116.15172074  energy(sigma->0) =     -116.15172074


--------------------------------------------------------------------------------------------------------




--------------------------------------- Iteration      1(   4)  ---------------------------------------


     EDDAV:  cpu time     37.8005: real time     37.8167
       DOS:  cpu time      0.0050: real time      0.0053
    --------------------------------------------
      LOOP:  cpu time     37.8056: real time     37.8219

 eigenvalue-minimisations  :  6608
 total energy-change (2. order) :-0.1217839E+03  (-0.1181237E+03)
 number of electron     384.0000000 magnetization 
 augmentation part      384.0000000 magnetization 

 Free energy of the ion-electron system (eV)
  ---------------------------------------------------
  alpha Z        PSCENC =      1270.21168223
  Ewald energy   TEWEN  =    -28802.92373824
  -Hartree energ DENC   =    -11803.65987120
  -exchange      EXHF   =         0.00000000
  -V(xc)+E(xc)   XCENC  =      1230.60540155
  PAW double counting   =     34040.00696010   -33495.80632930
  entropy T*S    EENTRO =        -0.00000000
  eigenvalues    EBANDS =     -3018.02161369
  atomic energy  EATOM  =     40341.65184589
  Solvation  Ediel_sol  =         0.00000000
  ---------------------------------------------------
  free energy    TOTEN  =      -237.93566267 eV

  energy without entropy =     -237.93566267  energy(sigma->0) =     -237.93566267


--------------------------------------------------------------------------------------------------------




--------------------------------------- Iteration      1(   5)  ---------------------------------------


     EDDAV:  cpu time     38.6180: real time     38.6184
       DOS:  cpu time      0.0030: real time      0.0031
    CHARGE:  cpu time      1.2211: real time      1.2212
    MIXING:  cpu time      0.0061: real time      0.0061
    --------------------------------------------
      LOOP:  cpu time     39.8483: real time     39.8489

 eigenvalue-minimisations  :  6792
 total energy-change (2. order) :-0.5791183E+01  (-0.5712525E+01)
 number of electron     383.9999999 magnetization 
 augmentation part       98.5706775 magnetization 

 Broyden mixing:
  rms(total) = 0.34304E+01    rms(broyden)= 0.34297E+01
  rms(prec ) = 0.43722E+01
  weight for this iteration     100.00

 Free energy of the ion-electron system (eV)
  ---------------------------------------------------
  alpha Z        PSCENC =      1270.21168223
  Ewald energy   TEWEN  =    -28802.92373824
  -Hartree energ DENC   =    -11803.65987120
  -exchange      EXHF   =         0.00000000
  -V(xc)+E(xc)   XCENC  =      1230.60540155
  PAW double counting   =     34040.00696010   -33495.80632930
  entropy T*S    EENTRO =        -0.00000000
  eigenvalues    EBANDS =     -3023.81279676
  atomic energy  EATOM  =     40341.65184589
  Solvation  Ediel_sol  =         0.00000000
  ---------------------------------------------------
  free energy    TOTEN  =      -243.72684573 eV

  energy without entropy =     -243.72684573  energy(sigma->0) =     -243.72684573


--------------------------------------------------------------------------------------------------------




--------------------------------------- Iteration      1(   6)  ---------------------------------------


    POTLOK:  cpu time      0.1760: real time      0.1761
    SETDIJ:  cpu time      0.6453: real time      0.6453
     EDDAV:  cpu time     42.0256: real time     42.0468
       DOS:  cpu time      0.0011: real time      0.0012
    CHARGE:  cpu time      1.2444: real time      1.2451
    MIXING:  cpu time      0.0082: real time      0.0082
    --------------------------------------------
      LOOP:  cpu time     44.1005: real time     44.1227

 eigenvalue-minimisations  :  7600
 total energy-change (2. order) : 0.3475740E+02  (-0.1526289E+02)
 number of electron     384.0000000 magnetization 
 augmentation part       95.0457664 magnetization 

 Broyden mixing:
  rms(total) = 0.14272E+01    rms(broyden)= 0.14254E+01
  rms(prec ) = 0.17036E+01
  weight for this iteration     100.00

 eigenvalues of (default mixing * dielectric matrix)
  average eigenvalue GAMMA=   0.7458
  0.7458

 Free energy of the ion-electron system (eV)
  ---------------------------------------------------
  alpha Z        PSCENC =      1270.21168223
  Ewald energy   TEWEN  =    -28802.92373824
  -Hartree energ DENC   =    -12047.62226445
  -exchange      EXHF   =         0.00000000
  -V(xc)+E(xc)   XCENC  =      1250.59416022
  PAW double counting   =     34550.43967700   -33960.87180757
  entropy T*S    EENTRO =        -0.00000000
  eigenvalues    EBANDS =     -2810.44900232
  atomic energy  EATOM  =     40341.65184589
  Solvation  Ediel_sol  =         0.00000000
  ---------------------------------------------------
  free energy    TOTEN  =      -208.96944724 eV

  energy without entropy =     -208.96944724  energy(sigma->0) =     -208.96944724


--------------------------------------------------------------------------------------------------------




--------------------------------------- Iteration      1(   7)  ---------------------------------------


    POTLOK:  cpu time      0.1750: real time      0.1753
    SETDIJ:  cpu time      0.6463: real time      0.6464
     EDDAV:  cpu time     35.8846: real time     35.9047
       DOS:  cpu time      0.0013: real time      0.0014
    CHARGE:  cpu time      1.2380: real time      1.2390
    MIXING:  cpu time      0.0091: real time      0.0091
    --------------------------------------------
      LOOP:  cpu time     37.9543: real time     37.9758

 eigenvalue-minimisations  :  6152
 total energy-change (2. order) : 0.5150892E+00  (-0.2913415E+01)
 number of electron     384.0000000 magnetization 
 augmentation part       95.0094609 magnetization 

 Broyden mixing:
  rms(total) = 0.80175E+00    rms(broyden)= 0.80175E+00
  rms(prec ) = 0.87774E+00
  weight for this iteration     100.00

 eigenvalues of (default mixing * dielectric matrix)
  average eigenvalue GAMMA=   1.1256
  1.0576  1.1936

 Free energy of the ion-electron system (eV)
  ---------------------------------------------------
  alpha Z        PSCENC =      1270.21168223
  Ewald energy   TEWEN  =    -28802.92373824
  -Hartree energ DENC   =    -11951.26579637
  -exchange      EXHF   =         0.00000000
  -V(xc)+E(xc)   XCENC  =      1246.75903235
  PAW double counting   =     35213.84270511   -34617.20915959
  entropy T*S    EENTRO =        -0.00000060
  eigenvalues    EBANDS =     -2909.52092887
  atomic energy  EATOM  =     40341.65184589
  Solvation  Ediel_sol  =         0.00000000
  ---------------------------------------------------
  free energy    TOTEN  =      -208.45435808 eV

  energy without entropy =     -208.45435749  energy(sigma->0) =     -208.45435779


--------------------------------------------------------------------------------------------------------




--------------------------------------- Iteration      1(   8)  ---------------------------------------


    POTLOK:  cpu time      0.1748: real time      0.1755
    SETDIJ:  cpu time      0.6453: real time      0.6453
     EDDAV:  cpu time     42.2183: real time     42.2238
       DOS:  cpu time      0.0014: real time      0.0015
    CHARGE:  cpu time      1.2438: real time      1.2438
    MIXING:  cpu time      0.0066: real time      0.0066
    --------------------------------------------
      LOOP:  cpu time     44.2901: real time     44.2965

 eigenvalue-minimisations  :  7648
 total energy-change (2. order) :-0.1515964E+00  (-0.5893739E+00)
 number of electron     384.0000000 magnetization 
 augmentation part       95.3437398 magnetization 

 Broyden mixing:
  rms(total) = 0.33933E+00    rms(broyden)= 0.33914E+00
  rms(prec ) = 0.40139E+00
  weight for this iteration     100.00

 eigenvalues of (default mixing * dielectric matrix)
  average eigenvalue GAMMA=   1.2969
  2.1964  0.8472  0.8472

 Free energy of the ion-electron system (eV)
  ---------------------------------------------------
  alpha Z        PSCENC =      1270.21168223
  Ewald energy   TEWEN  =    -28802.92373824
  -Hartree energ DENC   =    -11937.93178908
  -exchange      EXHF   =         0.00000000
  -V(xc)+E(xc)   XCENC  =      1245.88056253
  PAW double counting   =     35550.17740334   -34947.25284869
  entropy T*S    EENTRO =        -0.00005222
  eigenvalues    EBANDS =     -2928.41902023
  atomic energy  EATOM  =     40341.65184589
  Solvation  Ediel_sol  =         0.00000000
  ---------------------------------------------------
  free energy    TOTEN  =      -208.60595448 eV

  energy without entropy =     -208.60590226  energy(sigma->0) =     -208.60592837


--------------------------------------------------------------------------------------------------------




--------------------------------------- Iteration      1(   9)  ---------------------------------------


    POTLOK:  cpu time      0.1758: real time      0.1759
    SETDIJ:  cpu time      0.6435: real time      0.6440
     EDDAV:  cpu time     41.2094: real time     41.2192
       DOS:  cpu time      0.0014: real time      0.0015
    CHARGE:  cpu time      1.2444: real time      1.2445
    MIXING:  cpu time      0.0067: real time      0.0067
    --------------------------------------------
      LOOP:  cpu time     43.2812: real time     43.2917

 eigenvalue-minimisations  :  7408
 total energy-change (2. order) : 0.6612642E-01  (-0.6052516E-01)
 number of electron     384.0000000 magnetization 
 augmentation part       95.0211557 magnetization 

 Broyden mixing:
  rms(total) = 0.15097E+00    rms(broyden)= 0.15094E+00
  rms(prec ) = 0.18105E+00
  weight for this iteration     100.00

 eigenvalues of (default mixing * dielectric matrix)
  average eigenvalue GAMMA=   1.2999
  2.4525  0.8270  0.8270  1.0932

 Free energy of the ion-electron system (eV)
  ---------------------------------------------------
  alpha Z        PSCENC =      1270.21168223
  Ewald energy   TEWEN  =    -28802.92373824
  -Hartree energ DENC   =    -11963.04283294
  -exchange      EXHF   =         0.00000000
  -V(xc)+E(xc)   XCENC  =      1247.56428233
  PAW double counting   =     35892.32929938   -35283.96241057
  entropy T*S    EENTRO =        -0.00000153
  eigenvalues    EBANDS =     -2910.36795462
  atomic energy  EATOM  =     40341.65184589
  Solvation  Ediel_sol  =         0.00000000
  ---------------------------------------------------
  free energy    TOTEN  =      -208.53982806 eV

  energy without entropy =     -208.53982653  energy(sigma->0) =     -208.53982730


--------------------------------------------------------------------------------------------------------




--------------------------------------- Iteration      1(  10)  ---------------------------------------


    POTLOK:  cpu time      0.1767: real time      0.1767
    SETDIJ:  cpu time      0.6431: real time      0.6432
     EDDAV:  cpu time     39.6477: real time     39.6493
       DOS:  cpu time      0.0016: real time      0.0017
    CHARGE:  cpu time      1.2431: real time      1.2432
    MIXING:  cpu time      0.0068: real time      0.0068
    --------------------------------------------
      LOOP:  cpu time     41.7190: real time     41.7209

 eigenvalue-minimisations  :  7040
 total energy-change (2. order) : 0.1362246E-01  (-0.1912667E-01)
 number of electron     384.0000000 magnetization 
 augmentation part       95.0265535 magnetization 

 Broyden mixing:
  rms(total) = 0.39895E-01    rms(broyden)= 0.39870E-01
  rms(prec ) = 0.41616E-01
  weight for this iteration     100.00

 eigenvalues of (default mixing * dielectric matrix)
  average eigenvalue GAMMA=   1.1607
  2.3982  0.8269  0.8269  0.9963  0.7550

 Free energy of the ion-electron system (eV)
  ---------------------------------------------------
  alpha Z        PSCENC =      1270.21168223
  Ewald energy   TEWEN  =    -28802.92373824
  -Hartree energ DENC   =    -11954.38807013
  -exchange      EXHF   =         0.00000000
  -V(xc)+E(xc)   XCENC  =      1247.23918615
  PAW double counting   =     35995.80641260   -35386.99903117
  entropy T*S    EENTRO =        -0.00000858
  eigenvalues    EBANDS =     -2919.12448436
  atomic energy  EATOM  =     40341.65184589
  Solvation  Ediel_sol  =         0.00000000
  ---------------------------------------------------
  free energy    TOTEN  =      -208.52620561 eV

  energy without entropy =     -208.52619703  energy(sigma->0) =     -208.52620132


--------------------------------------------------------------------------------------------------------




--------------------------------------- Iteration      1(  11)  ---------------------------------------


    POTLOK:  cpu time      0.1764: real time      0.1765
    SETDIJ:  cpu time      0.6403: real time      0.6403
     EDDAV:  cpu time     41.9347: real time     41.9350
       DOS:  cpu time      0.0018: real time      0.0020
    CHARGE:  cpu time      1.2430: real time      1.2432
    MIXING:  cpu time      0.0069: real time      0.0069
    --------------------------------------------
      LOOP:  cpu time     44.0031: real time     44.0037

 eigenvalue-minimisations  :  7576
 total energy-change (2. order) :-0.2480761E-02  (-0.2264107E-02)
 number of electron     384.0000000 magnetization 
 augmentation part       95.0319569 magnetization 

 Broyden mixing:
  rms(total) = 0.33373E-01    rms(broyden)= 0.33370E-01
  rms(prec ) = 0.35609E-01
  weight for this iteration     100.00

 eigenvalues of (default mixing * dielectric matrix)
  average eigenvalue GAMMA=   1.3536
  1.9354  1.9354  0.8262  0.8262  1.4286  1.1700

 Free energy of the ion-electron system (eV)
  ---------------------------------------------------
  alpha Z        PSCENC =      1270.21168223
  Ewald energy   TEWEN  =    -28802.92373824
  -Hartree energ DENC   =    -11954.38428364
  -exchange      EXHF   =         0.00000000
  -V(xc)+E(xc)   XCENC  =      1247.25480478
  PAW double counting   =     35971.68623392   -35363.34181306
  entropy T*S    EENTRO =        -0.00000831
  eigenvalues    EBANDS =     -2918.68340995
  atomic energy  EATOM  =     40341.65184589
  Solvation  Ediel_sol  =         0.00000000
  ---------------------------------------------------
  free energy    TOTEN  =      -208.52868637 eV

  energy without entropy =     -208.52867806  energy(sigma->0) =     -208.52868222


--------------------------------------------------------------------------------------------------------




--------------------------------------- Iteration      1(  12)  ---------------------------------------


    POTLOK:  cpu time      0.1757: real time      0.1757
    SETDIJ:  cpu time      0.6415: real time      0.6417
     EDDAV:  cpu time     42.0568: real time     42.0647
       DOS:  cpu time      0.0017: real time      0.0017
    CHARGE:  cpu time      1.2434: real time      1.2436
    MIXING:  cpu time      0.0070: real time      0.0070
    --------------------------------------------
      LOOP:  cpu time     44.1261: real time     44.1345

 eigenvalue-minimisations  :  7608
 total energy-change (2. order) :-0.1234004E-02  (-0.7622859E-03)
 number of electron     384.0000000 magnetization 
 augmentation part       95.0020240 magnetization 

 Broyden mixing:
  rms(total) = 0.16743E-01    rms(broyden)= 0.16738E-01
  rms(prec ) = 0.19728E-01
  weight for this iteration     100.00

 eigenvalues of (default mixing * dielectric matrix)
  average eigenvalue GAMMA=   1.3897
  2.4788  2.4788  0.8101  0.8101  1.0959  1.0959  0.9583

 Free energy of the ion-electron system (eV)
  ---------------------------------------------------
  alpha Z        PSCENC =      1270.21168223
  Ewald energy   TEWEN  =    -28802.92373824
  -Hartree energ DENC   =    -11955.37023564
  -exchange      EXHF   =         0.00000000
  -V(xc)+E(xc)   XCENC  =      1247.36204153
  PAW double counting   =     35942.94771119   -35335.45255886
  entropy T*S    EENTRO =        -0.00000717
  eigenvalues    EBANDS =     -2916.95666130
  atomic energy  EATOM  =     40341.65184589
  Solvation  Ediel_sol  =         0.00000000
  ---------------------------------------------------
  free energy    TOTEN  =      -208.52992037 eV

  energy without entropy =     -208.52991321  energy(sigma->0) =     -208.52991679


--------------------------------------------------------------------------------------------------------




--------------------------------------- Iteration      1(  13)  ---------------------------------------


    POTLOK:  cpu time      0.1757: real time      0.1757
    SETDIJ:  cpu time      0.6408: real time      0.6408
     EDDAV:  cpu time     37.4127: real time     37.4131
       DOS:  cpu time      0.0016: real time      0.0017
    CHARGE:  cpu time      1.2452: real time      1.2452
    MIXING:  cpu time      0.0065: real time      0.0065
    --------------------------------------------
      LOOP:  cpu time     39.4826: real time     39.4831

 eigenvalue-minimisations  :  6512
 total energy-change (2. order) : 0.4335460E-04  (-0.7029843E-04)
 number of electron     384.0000000 magnetization 
 augmentation part       95.0014942 magnetization 

 Broyden mixing:
  rms(total) = 0.92281E-02    rms(broyden)= 0.92279E-02
  rms(prec ) = 0.10611E-01
  weight for this iteration     100.00

 eigenvalues of (default mixing * dielectric matrix)
  average eigenvalue GAMMA=   1.3664
  2.7601  2.4228  1.0987  1.0346  0.8312  0.8312  0.9761  0.9761

 Free energy of the ion-electron system (eV)
  ---------------------------------------------------
  alpha Z        PSCENC =      1270.21168223
  Ewald energy   TEWEN  =    -28802.92373824
  -Hartree energ DENC   =    -11954.88873324
  -exchange      EXHF   =         0.00000000
  -V(xc)+E(xc)   XCENC  =      1247.34896124
  PAW double counting   =     35932.87418007   -35325.68657011
  entropy T*S    EENTRO =        -0.00000707
  eigenvalues    EBANDS =     -2917.11749777
  atomic energy  EATOM  =     40341.65184589
  Solvation  Ediel_sol  =         0.00000000
  ---------------------------------------------------
  free energy    TOTEN  =      -208.52987702 eV

  energy without entropy =     -208.52986995  energy(sigma->0) =     -208.52987348


--------------------------------------------------------------------------------------------------------




--------------------------------------- Iteration      1(  14)  ---------------------------------------


    POTLOK:  cpu time      0.1763: real time      0.1764
    SETDIJ:  cpu time      0.6426: real time      0.6426
     EDDAV:  cpu time     38.2626: real time     38.2701
       DOS:  cpu time      0.0012: real time      0.0014
    CHARGE:  cpu time      1.2430: real time      1.2444
    MIXING:  cpu time      0.0085: real time      0.0085
    --------------------------------------------
      LOOP:  cpu time     40.3342: real time     40.3434

 eigenvalue-minimisations  :  6712
 total energy-change (2. order) : 0.5738278E-04  (-0.3255112E-04)
 number of electron     384.0000000 magnetization 
 augmentation part       95.0049275 magnetization 

 Broyden mixing:
  rms(total) = 0.41727E-02    rms(broyden)= 0.41715E-02
  rms(prec ) = 0.47919E-02
  weight for this iteration     100.00

 eigenvalues of (default mixing * dielectric matrix)
  average eigenvalue GAMMA=   1.3078
  2.7374  2.3404  1.2088  0.8436  0.8436  0.9921  0.9921  1.0140  0.7983

 Free energy of the ion-electron system (eV)
  ---------------------------------------------------
  alpha Z        PSCENC =      1270.21168223
  Ewald energy   TEWEN  =    -28802.92373824
  -Hartree energ DENC   =    -11954.72266523
  -exchange      EXHF   =         0.00000000
  -V(xc)+E(xc)   XCENC  =      1247.33715981
  PAW double counting   =     35929.65235699   -35322.47579311
  entropy T*S    EENTRO =        -0.00000721
  eigenvalues    EBANDS =     -2917.26066076
  atomic energy  EATOM  =     40341.65184589
  Solvation  Ediel_sol  =         0.00000000
  ---------------------------------------------------
  free energy    TOTEN  =      -208.52981964 eV

  energy without entropy =     -208.52981243  energy(sigma->0) =     -208.52981603


--------------------------------------------------------------------------------------------------------




--------------------------------------- Iteration      1(  15)  ---------------------------------------


    POTLOK:  cpu time      0.1743: real time      0.1744
    SETDIJ:  cpu time      0.6431: real time      0.6438
     EDDAV:  cpu time     44.1771: real time     44.2094
       DOS:  cpu time      0.0020: real time      0.0021
    CHARGE:  cpu time      1.2461: real time      1.2461
    MIXING:  cpu time      0.0070: real time      0.0070
    --------------------------------------------
      LOOP:  cpu time     46.2497: real time     46.2828

 eigenvalue-minimisations  :  8128
 total energy-change (2. order) : 0.1646898E-04  (-0.5488525E-05)
 number of electron     384.0000000 magnetization 
 augmentation part       95.0071827 magnetization 

 Broyden mixing:
  rms(total) = 0.18641E-02    rms(broyden)= 0.18634E-02
  rms(prec ) = 0.20636E-02
  weight for this iteration     100.00

 eigenvalues of (default mixing * dielectric matrix)
  average eigenvalue GAMMA=   1.3202
  2.7110  2.3347  1.3385  1.3385  1.2000  0.9761  0.8232  0.8232  0.8283  0.8283

 Free energy of the ion-electron system (eV)
  ---------------------------------------------------
  alpha Z        PSCENC =      1270.21168223
  Ewald energy   TEWEN  =    -28802.92373824
  -Hartree energ DENC   =    -11954.63221293
  -exchange      EXHF   =         0.00000000
  -V(xc)+E(xc)   XCENC  =      1247.33028976
  PAW double counting   =     35929.25459352   -35322.05323786
  entropy T*S    EENTRO =        -0.00000738
  eigenvalues    EBANDS =     -2917.36901816
  atomic energy  EATOM  =     40341.65184589
  Solvation  Ediel_sol  =         0.00000000
  ---------------------------------------------------
  free energy    TOTEN  =      -208.52980317 eV

  energy without entropy =     -208.52979579  energy(sigma->0) =     -208.52979948


--------------------------------------------------------------------------------------------------------




--------------------------------------- Iteration      1(  16)  ---------------------------------------


    POTLOK:  cpu time      0.1764: real time      0.1764
    SETDIJ:  cpu time      0.6427: real time      0.6428
     EDDAV:  cpu time     37.3274: real time     37.3272
       DOS:  cpu time      0.0014: real time      0.0015
    CHARGE:  cpu time      1.2451: real time      1.2466
    MIXING:  cpu time      0.0077: real time      0.0077
    --------------------------------------------
      LOOP:  cpu time     39.4007: real time     39.4022

 eigenvalue-minimisations  :  6488
 total energy-change (2. order) : 0.2259520E-05  (-0.4360581E-06)
 number of electron     384.0000000 magnetization 
 augmentation part       95.0076802 magnetization 

 Broyden mixing:
  rms(total) = 0.11396E-02    rms(broyden)= 0.11395E-02
  rms(prec ) = 0.13071E-02
  weight for this iteration     100.00

 eigenvalues of (default mixing * dielectric matrix)
  average eigenvalue GAMMA=   1.3856
  2.7837  2.3956  2.0855  1.5965  0.9049  0.9049  0.8311  0.8311  0.9913  0.9587
  0.9587

 Free energy of the ion-electron system (eV)
  ---------------------------------------------------
  alpha Z        PSCENC =      1270.21168223
  Ewald energy   TEWEN  =    -28802.92373824
  -Hartree energ DENC   =    -11954.60737730
  -exchange      EXHF   =         0.00000000
  -V(xc)+E(xc)   XCENC  =      1247.32846621
  PAW double counting   =     35928.82087363   -35321.60762563
  entropy T*S    EENTRO =        -0.00000741
  eigenvalues    EBANDS =     -2917.40392028
  atomic energy  EATOM  =     40341.65184589
  Solvation  Ediel_sol  =         0.00000000
  ---------------------------------------------------
  free energy    TOTEN  =      -208.52980091 eV

  energy without entropy =     -208.52979349  energy(sigma->0) =     -208.52979720


--------------------------------------------------------------------------------------------------------




--------------------------------------- Iteration      1(  17)  ---------------------------------------


    POTLOK:  cpu time      0.1754: real time      0.1754
[...]
    168       3.7569      2.00000
    169       4.3088      2.00000
    170       4.3118      2.00000
    171       4.3346      2.00000
    172       4.3346      2.00000
    173       4.4631      2.00000
    174       4.4700      2.00000
    175       4.4855      2.00000
    176       4.4855      2.00000
    177       4.5460      2.00000
    178       4.5460      2.00000
    179       4.5650      2.00000
    180       4.5765      2.00000
    181       4.9395      2.00000
    182       4.9395      2.00000
    183       4.9397      2.00000
    184       4.9601      2.00000
    185       5.3250      2.00000
    186       5.3250      2.00000
    187       5.3335      2.00000
    188       5.3471      2.00000
    189       5.4239      2.00000
    190       5.4239      2.00000
    191       5.4334      2.00000
    192       5.4435      2.00000
    193       7.4031      0.00000
    194       7.4247      0.00000
    195       7.4247      0.00000
    196       7.4568      0.00000
    197       8.1196      0.00000
    198       8.1480      0.00000
    199       8.1480      0.00000
    200       8.1792      0.00000
    201       8.6661      0.00000
    202       8.6775      0.00000
    203       8.6961      0.00000
    204       8.6961      0.00000
    205       8.9630      0.00000
    206       8.9754      0.00000
    207       9.0010      0.00000
    208       9.0010      0.00000
    209       9.0461      0.00000
    210       9.0461      0.00000
    211       9.0680      0.00000
    212       9.0943      0.00000
    213       9.1458      0.00000
    214       9.1458      0.00000
    215       9.1597      0.00000
    216       9.1832      0.00000
    217       9.8828      0.00000
    218       9.8828      0.00000
    219       9.8934      0.00000
    220       9.9057      0.00000
    221       9.9711      0.00000
    222       9.9711      0.00000
    223       9.9745      0.00000
    224       9.9881      0.00000
    225      10.5662      0.00000
    226      10.5662      0.00000
    227      10.5786      0.00000
    228      10.6475      0.00000
    229      10.6491      0.00000
    230      10.6598      0.00000
    231      10.6647      0.00000
    232      10.6650      0.00000


--------------------------------------------------------------------------------------------------------


 soft charge-density along one line, spin component           1
         0         1         2         3         4         5         6         7         8         9
 total charge-density along one line
 
 pseudopotential strength for first ion, spin component:           1
-18.122   0.001   0.001   0.001  -0.000   4.195  -0.000  -0.000
  0.001 -18.110   0.001  -0.001  -0.001  -0.000   4.190  -0.000
  0.001   0.001 -18.133   0.001   0.000  -0.000  -0.000   4.202
  0.001  -0.001   0.001 -18.110   0.001  -0.000   0.000  -0.000
 -0.000  -0.001   0.000   0.001 -18.104   0.000   0.001  -0.000
  4.195  -0.000  -0.000  -0.000   0.000   5.684   0.000   0.000
 -0.000   4.190  -0.000   0.000   0.001   0.000   5.685   0.000
 -0.000  -0.000   4.202  -0.000  -0.000   0.000   0.000   5.684
 -0.000   0.000  -0.000   4.190  -0.001   0.000  -0.000   0.000
  0.000   0.001  -0.000  -0.001   4.185   0.000  -0.000   0.000
 -0.000   0.000   0.004   0.000   0.000   0.000  -0.000   0.005
  0.000  -0.000  -0.005  -0.000   0.000  -0.000   0.000  -0.006
  0.000  -0.016  -0.000  -0.000  -0.000   0.000   0.003   0.000
 -0.000   0.000  -0.019   0.000   0.000  -0.000   0.000   0.002
  0.000  -0.000  -0.000  -0.016   0.000   0.000  -0.000   0.000
  0.000  -0.027  -0.000  -0.000  -0.000   0.000   0.003   0.000
 -0.000   0.000  -0.030   0.000   0.000  -0.000   0.000  -0.001
  0.000  -0.000  -0.000  -0.027   0.000   0.000  -0.000   0.000
 total augmentation occupancy for first ion, spin component:           1
  1.998   0.000   0.000   0.000  -0.000  -0.006   0.000   0.000   0.000  -0.000  -0.000  -0.000  -0.000  -0.000  -0.000   0.000
  0.000   1.998  -0.000  -0.000   0.000   0.000  -0.007   0.000  -0.000  -0.000   0.000   0.000   0.033   0.000  -0.000  -0.012
  0.000  -0.000   1.999  -0.000  -0.000   0.000   0.000  -0.004   0.000   0.000   0.001   0.000   0.000   0.030   0.000  -0.000
  0.000  -0.000  -0.000   1.998  -0.000   0.000  -0.000   0.000  -0.007   0.000   0.000   0.000  -0.000   0.000   0.033   0.000
 -0.000   0.000  -0.000  -0.000   1.997  -0.000  -0.000   0.000   0.000  -0.009  -0.000  -0.000   0.000  -0.000  -0.000  -0.000
 -0.006   0.000   0.000   0.000  -0.000   0.018   0.000   0.000   0.000  -0.000  -0.000  -0.000   0.002  -0.001   0.002  -0.000
  0.000  -0.007   0.000  -0.000  -0.000   0.000   0.040   0.000  -0.000  -0.000   0.000   0.001  -0.077   0.000  -0.002   0.010
  0.000   0.000  -0.004   0.000   0.000   0.000   0.000   0.014   0.000  -0.000   0.012  -0.005  -0.000   0.008  -0.000   0.000
  0.000  -0.000   0.000  -0.007   0.000   0.000  -0.000   0.000   0.040   0.000   0.000   0.001  -0.002   0.000  -0.077   0.000
 -0.000  -0.000   0.000   0.000  -0.009  -0.000  -0.000  -0.000   0.000   0.049  -0.000   0.000   0.001  -0.000  -0.001  -0.000
 -0.000   0.000   0.001   0.000  -0.000  -0.000   0.000   0.012   0.000  -0.000   2.044  -0.029  -0.000   0.162  -0.000  -0.000
 -0.000   0.000   0.000   0.000  -0.000  -0.000   0.001  -0.005   0.001   0.000  -0.029   0.028   0.001  -0.073   0.001   0.000
 -0.000   0.033   0.000  -0.000   0.000   0.002  -0.077  -0.000  -0.002   0.001  -0.000   0.001   0.855   0.006  -0.005  -0.073
 -0.000   0.000   0.030   0.000  -0.000  -0.001   0.000   0.008   0.000  -0.000   0.162  -0.073   0.006   0.916   0.006  -0.001
 -0.000  -0.000   0.000   0.033  -0.000   0.002  -0.002  -0.000  -0.077  -0.001  -0.000   0.001  -0.005   0.006   0.855   0.000
  0.000  -0.012  -0.000   0.000  -0.000  -0.000   0.010   0.000   0.000  -0.000  -0.000   0.000  -0.073  -0.001   0.000   0.008
  0.000   0.000  -0.019   0.000   0.000   0.000   0.000  -0.000   0.000  -0.000  -0.012   0.007  -0.001  -0.073  -0.001   0.000
  0.000   0.000  -0.000  -0.012   0.000  -0.000   0.000   0.000   0.010   0.000  -0.000   0.000   0.000  -0.001  -0.073  -0.000


------------------------ aborting loop because EDIFF is reached ----------------------------------------


    CHARGE:  cpu time      1.2472: real time      1.2474
    FORLOC:  cpu time      0.0161: real time      0.0161
    FORNL :  cpu time      6.0075: real time      6.0078
    STRESS:  cpu time     19.8290: real time     19.8289
    FORCOR:  cpu time      0.1789: real time      0.1791
    FORHAR:  cpu time      0.0589: real time      0.0589
    MIXING:  cpu time      0.0049: real time      0.0049
    OFIELD:  cpu time      0.0001: real time      0.0001

  FORCE on cell =-STRESS in cart. coord.  units (eV):
  Direction    XX          YY          ZZ          XY          YZ          ZX
  --------------------------------------------------------------------------------------
  Alpha Z  1270.21168  1270.21168  1270.21168
  Ewald   -7625.16106 -7625.16106-13552.71518     0.00000    -0.00000    -0.00000
  Hartree  5700.36535  5700.36535   553.84140    -0.00000    -0.00000    -0.00000
  E(xc)   -1822.15958 -1822.15958 -1824.13559     0.00000     0.00000     0.00000
  Local   -6213.36260 -6213.36260  4866.43875     0.00000     0.00000     0.00000
  n-local  1569.17556  1577.91889  1576.74845     0.37290    -0.05736     0.09900
  augment  2176.29727  2176.29727  2161.46021     0.00000     0.00000     0.00000
  Kinetic  4918.52051  4927.64971  4935.29599    -3.28180     0.44055    -0.48574
  Fock        0.00000     0.00000     0.00000     0.00000     0.00000     0.00000
  -------------------------------------------------------------------------------------
  Total     -17.17660   -17.17660   -12.85428     0.00000     0.00000     0.00000
  in kB     -34.60473   -34.60473   -25.89678     0.00000     0.00000     0.00000
  external pressure =      -31.70 kB  Pullay stress =        0.00 kB


 VOLUME and BASIS-vectors are now :
 -----------------------------------------------------------------------------
  energy-cutoff  :      520.00
  volume of cell :      795.27
      direct lattice vectors                 reciprocal lattice vectors
     7.957761434  0.000000000  0.000000000     0.125663481  0.000000000  0.000000000
     0.000000000  7.957761434  0.000000000     0.000000000  0.125663481  0.000000000
     0.000000000  0.000000000 12.558292333     0.000000000  0.000000000  0.079628661

  length of vectors
     7.957761434  7.957761434 12.558292333     0.125663481  0.125663481  0.079628661


 FORCES acting on ions
    electron-ion (+dipol)            ewald-force                    non-local-force                 convergence-correction
 -----------------------------------------------------------------------------------------------
   -.549E+01 -.549E+01 -.446E+03   0.541E+01 0.541E+01 0.456E+03   0.835E-01 0.835E-01 -.105E+02   -.783E-07 -.783E-07 0.882E-06
   0.549E+01 -.549E+01 -.446E+03   -.541E+01 0.541E+01 0.456E+03   -.835E-01 0.835E-01 -.105E+02   0.783E-07 -.783E-07 0.882E-06
   -.549E+01 0.549E+01 -.446E+03   0.541E+01 -.541E+01 0.456E+03   0.835E-01 -.835E-01 -.105E+02   -.783E-07 0.783E-07 0.882E-06
   0.549E+01 0.549E+01 -.446E+03   -.541E+01 -.541E+01 0.456E+03   -.835E-01 -.835E-01 -.105E+02   0.783E-07 0.783E-07 0.882E-06
   0.143E-11 -.106E-11 0.475E+03   0.000E+00 -.853E-13 -.485E+03   0.153E-17 0.734E-18 0.103E+02   -.318E-12 -.601E-13 0.153E-05
   0.773E-12 0.920E-12 0.475E+03   -.853E-13 0.462E-13 -.485E+03   0.982E-18 0.752E-18 0.104E+02   0.679E-13 -.548E-12 0.959E-06
   -.457E-13 0.264E-11 0.475E+03   -.284E-13 0.000E+00 -.485E+03   -.128E-17 0.225E-18 0.104E+02   0.199E-11 0.756E-13 0.959E-06
   0.783E-12 0.731E-11 0.476E+03   -.142E-12 -.231E-13 -.487E+03   -.118E-17 -.889E-18 0.105E+02   -.210E-11 0.188E-13 -.145E-06
   -.416E-13 0.945E-12 -.475E+03   -.114E-12 0.568E-13 0.485E+03   -.248E-17 -.172E-18 -.103E+02   -.473E-11 0.695E-12 -.153E-05
   0.765E-12 -.921E-12 -.475E+03   -.284E-13 -.213E-13 0.485E+03   -.632E-18 0.615E-18 -.104E+02   0.448E-11 0.212E-12 -.959E-06
   -.121E-13 -.137E-11 -.475E+03   0.284E-13 0.284E-13 0.485E+03   0.400E-18 0.729E-18 -.104E+02   -.618E-11 -.335E-12 -.959E-06
   0.739E-12 0.353E-13 -.476E+03   0.284E-13 -.711E-14 0.487E+03   0.608E-18 -.135E-17 -.105E+02   0.591E-11 0.387E-12 0.145E-06
   -.549E+01 -.549E+01 0.446E+03   0.541E+01 0.541E+01 -.456E+03   0.835E-01 0.835E-01 0.105E+02   -.783E-07 -.783E-07 -.882E-06
   0.549E+01 -.549E+01 0.446E+03   -.541E+01 0.541E+01 -.456E+03   -.835E-01 0.835E-01 0.105E+02   0.783E-07 -.783E-07 -.882E-06
   -.549E+01 0.549E+01 0.446E+03   0.541E+01 -.541E+01 -.456E+03   0.835E-01 -.835E-01 0.105E+02   -.783E-07 0.783E-07 -.882E-06
   0.549E+01 0.549E+01 0.446E+03   -.541E+01 -.541E+01 -.456E+03   -.835E-01 -.835E-01 0.105E+02   0.783E-07 0.783E-07 -.882E-06
   0.258E-13 0.202E-13 0.357E-12   -.568E-13 0.284E-13 -.604E-13   0.145E-25 -.210E-26 -.252E-27   -.189E-11 -.136E-12 0.628E-12
   0.463E-13 0.193E-11 0.626E-12   0.568E-13 0.142E-13 0.107E-13   0.229E-26 0.400E-25 -.170E-26   0.100E-11 -.130E-12 0.403E-11
   0.259E-13 -.599E-12 0.310E-12   0.568E-13 -.426E-13 -.355E-13   0.548E-26 0.840E-26 0.200E-27   -.101E-11 0.323E-12 0.375E-11
   -.245E+01 -.245E+01 0.572E-07   0.246E+01 0.246E+01 -.135E-13   -.121E-01 -.121E-01 0.152E-21   0.127E-06 0.127E-06 -.665E-12
   0.245E+01 -.245E+01 -.129E-10   -.246E+01 0.246E+01 -.170E-13   0.121E-01 -.121E-01 0.190E-20   -.127E-06 0.127E-06 -.224E-11
   -.245E+01 0.245E+01 0.117E-11   0.246E+01 -.246E+01 0.434E-14   -.121E-01 0.121E-01 0.351E-20   0.127E-06 -.127E-06 -.375E-12
   0.245E+01 0.245E+01 -.573E-07   -.246E+01 -.246E+01 0.794E-15   0.121E-01 0.121E-01 -.115E-19   -.127E-06 -.127E-06 -.141E-11
   -.175E-13 -.185E+01 0.811E+01   0.000E+00 0.182E+01 -.827E+01   0.602E-19 0.326E-01 0.160E+00   0.205E-11 -.432E-06 0.731E-06
   0.244E-12 -.123E+01 0.398E+01   0.284E-13 0.119E+01 -.382E+01   -.187E-18 0.476E-01 -.158E+00   -.214E-11 -.978E-06 0.145E-05
   -.193E-13 0.185E+01 0.811E+01   -.568E-13 -.182E+01 -.827E+01   -.120E-18 -.326E-01 0.160E+00   0.277E-11 0.432E-06 0.731E-06
   0.234E-12 0.123E+01 0.398E+01   0.426E-13 -.119E+01 -.382E+01   -.356E-18 -.476E-01 -.158E+00   -.285E-11 0.978E-06 0.145E-05
   -.185E+01 -.183E-11 0.811E+01   0.182E+01 0.320E-13 -.827E+01   0.326E-01 -.200E-18 0.160E+00   -.432E-06 0.115E-12 0.731E-06
   0.185E+01 -.130E-11 0.811E+01   -.182E+01 0.142E-13 -.827E+01   -.326E-01 0.513E-19 0.160E+00   0.432E-06 0.140E-11 0.731E-06
   -.123E+01 -.188E-11 0.398E+01   0.119E+01 0.711E-14 -.382E+01   0.476E-01 -.105E-18 -.158E+00   -.978E-06 -.154E-12 0.145E-05
   0.123E+01 0.490E-11 0.398E+01   -.119E+01 0.284E-13 -.382E+01   -.476E-01 -.170E-18 -.158E+00   0.978E-06 -.109E-11 0.145E-05
   -.185E+01 0.123E-11 -.811E+01   0.182E+01 0.000E+00 0.827E+01   0.326E-01 0.468E-18 -.160E+00   -.432E-06 0.608E-12 -.731E-06
   0.185E+01 0.173E-11 -.811E+01   -.182E+01 -.426E-13 0.827E+01   -.326E-01 0.229E-18 -.160E+00   0.432E-06 0.111E-11 -.731E-06
   -.123E+01 0.155E-11 -.398E+01   0.119E+01 -.213E-13 0.382E+01   0.476E-01 -.130E-18 0.158E+00   -.978E-06 -.676E-12 -.145E-05
   0.123E+01 0.387E-11 -.398E+01   -.119E+01 -.568E-13 0.382E+01   -.476E-01 -.283E-18 0.158E+00   0.978E-06 0.299E-12 -.145E-05
   0.215E-14 -.185E+01 -.811E+01   -.568E-13 0.182E+01 0.827E+01   -.162E-20 0.326E-01 -.160E+00   -.341E-11 -.432E-06 -.731E-06
   0.250E-12 -.123E+01 -.398E+01   0.142E-13 0.119E+01 0.382E+01   0.166E-18 0.476E-01 0.158E+00   0.333E-11 -.978E-06 -.145E-05
   0.226E-14 0.185E+01 -.811E+01   -.711E-13 -.182E+01 0.827E+01   0.161E-18 -.326E-01 -.160E+00   -.363E-11 0.432E-06 -.731E-06
   0.253E-12 0.123E+01 -.398E+01   0.284E-13 -.119E+01 0.382E+01   0.141E-18 -.476E-01 0.158E+00   0.353E-11 0.978E-06 -.145E-05
   -.941E-14 -.613E-14 0.414E-13   0.284E-13 0.284E-13 0.711E-14   0.695E-26 -.103E-25 0.607E-26   0.196E-11 -.239E-13 0.301E-11
 -----------------------------------------------------------------------------------------------
   0.151E-10 -.255E-11 -.762E-10   -.426E-13 -.515E-13 -.234E-12   0.466E-18 -.208E-16 -.107E-13   -.944E-12 0.312E-11 -.118E-11
 
 
 POSITION                                       TOTAL-FORCE (eV/Angst)
 -----------------------------------------------------------------------------------
      1.98137      1.98137     10.70062        -0.000002     -0.000002     -0.000005
      5.97640      1.98137     10.70062         0.000002     -0.000002     -0.000005
      1.98137      5.97640     10.70062        -0.000002      0.000002     -0.000005
      5.97640      5.97640     10.70062         0.000002      0.000002     -0.000005
      7.95776      0.00000      8.14888         0.000000      0.000000     -0.000001
      3.97888      0.00000      8.15941        -0.000000      0.000000     -0.000002
      0.00000      3.97888      8.15941         0.000000      0.000000     -0.000002
      3.97888      3.97888      8.17136        -0.000000      0.000000     -0.000008
      0.00000      0.00000      4.40941        -0.000000      0.000000      0.000001
      3.97888      0.00000      4.39888         0.000000      0.000000      0.000002
      0.00000      3.97888      4.39888        -0.000000      0.000000      0.000002
      3.97888      3.97888      4.38693        -0.000000      0.000000      0.000008
      1.98137      1.98137      1.85767        -0.000002     -0.000002      0.000005
      5.97640      1.98137      1.85767         0.000002     -0.000002      0.000005
      1.98137      5.97640      1.85767        -0.000002      0.000002      0.000005
      5.97640      5.97640      1.85767         0.000002      0.000002      0.000005
      3.97888      0.00000      0.00000        -0.000000      0.000000     -0.000000
      7.95776      3.97888      0.00000        -0.000000      0.000000     -0.000000
      3.97888      3.97888      0.00000         0.000000      0.000000     -0.000000
      1.98777      1.98777      6.27915        -0.000003     -0.000003     -0.000000
      5.96999      1.98777      6.27915         0.000003     -0.000003     -0.000000
      1.98777      5.96999      6.27915        -0.000003      0.000003     -0.000000
      5.96999      5.96999      6.27915         0.000003      0.000003     -0.000000
      0.00000      1.98660      9.42607         0.000000      0.000001      0.000004
      3.97888      1.98769      9.43486        -0.000000      0.000003      0.000001
      0.00000      5.97116      9.42607        -0.000000     -0.000001      0.000004
      3.97888      5.97007      9.43486         0.000000     -0.000003      0.000001
      1.98660      0.00000      9.42607         0.000001      0.000000      0.000004
      5.97116      0.00000      9.42607        -0.000001      0.000000      0.000004
      1.98769      3.97888      9.43486         0.000003      0.000000      0.000001
      5.97007      3.97888      9.43486        -0.000003      0.000000      0.000001
      1.98660      0.00000      3.13222         0.000001      0.000000     -0.000004
      5.97116      0.00000      3.13222        -0.000001      0.000000     -0.000004
      1.98769      3.97888      3.12343         0.000003      0.000000     -0.000001
      5.97007      3.97888      3.12343        -0.000003      0.000000     -0.000001
      0.00000      1.98660      3.13222         0.000000      0.000001     -0.000004
      3.97888      1.98769      3.12343        -0.000000      0.000003     -0.000001
      0.00000      5.97116      3.13222        -0.000000     -0.000001     -0.000004
      3.97888      5.97007      3.12343        -0.000000     -0.000003     -0.000001
      0.00000      0.00000      0.00000         0.000000      0.000000     -0.000000
 -----------------------------------------------------------------------------------
    total drift:                                0.000000      0.000000     -0.000000


--------------------------------------------------------------------------------------------------------



  FREE ENERGIE OF THE ION-ELECTRON SYSTEM (eV)
  ---------------------------------------------------
  free  energy   TOTEN  =      -208.52979884 eV

  energy  without entropy=     -208.52979136  energy(sigma->0) =     -208.52979510
 
 d Force = 0.1232359E-10[-0.732E-11, 0.320E-10]  d Energy =-0.1014996E-08 0.103E-08
 d Force = 0.7919726E-04[ 0.792E-04, 0.792E-04]  d Ewald  = 0.7919713E-04 0.138E-09


--------------------------------------------------------------------------------------------------------


    POTLOK:  cpu time      0.8169: real time      0.8171


--------------------------------------------------------------------------------------------------------




--------------------------------------------------------------------------------------------------------


  
 reached required accuracy - stopping structural energy minimisation
     LOOP+:  cpu time    155.2369: real time    155.2481
    4ORBIT:  cpu time      0.0000: real time      0.0000

 total amount of memory used by VASP MPI-rank0    96924. kBytes
=======================================================================

   base      :      30000. kBytes
   nonl-proj :      18094. kBytes
   fftplans  :      13006. kBytes
   grid      :       8308. kBytes
   one-center:         77. kBytes
   wavefun   :      27439. kBytes
 
  
  
 General timing and accounting informations for this job:
 ========================================================
  
                  Total CPU time used (sec):     1396.117
                            User time (sec):     1392.578
                          System time (sec):        3.539
                         Elapsed time (sec):     1396.447
  
                   Maximum memory used (kb):      196996.
                   Average memory used (kb):          N/A
  
                          Minor page faults:        35915
                          Major page faults:            8
                 Voluntary context switches:          140
