<?xml version="1.0" encoding="ISO-8859-1"?>
<modeling>
 <generator>
  <i name="program" type="string">vasp </i>
  <i name="version" type="string">6.4.3  </i>
  <i name="subversion" type="string">19Mar24 (build Apr 09 2025 20:43:19) complex                          parallel </i>
  <i name="platform" type="string">LinuxIFC </i>
  <i name="date" type="string">2025 04 14 </i>
  <i name="time" type="string">10:33:39 </i>
 </generator>
 <incar>
  <i type="string" name="PREC">Accurate</i>
  <i type="int" name="IALGO">    38</i>
  <i type="logical" name="ADDGRID"> T  </i>
  <i type="int" name="NELMIN">     5</i>
  <i type="int" name="IBRION">     2</i>
  <i name="EDIFF">      0.00000001</i>
  <i name="EDIFFG">     -0.00001000</i>
  <i type="int" name="NSW">   100</i>
  <i type="int" name="ISIF">     2</i>
  <i name="ENCUT">    520.00000000</i>
  <i type="logical" name="LREAL"> F  </i>
  <i type="int" name="ISMEAR">     0</i>
  <i name="SIGMA">      0.05000000</i>
  <i type="logical" name="LWAVE"> F  </i>
  <i type="logical" name="LCHARG"> F  </i>
 </incar>
 <primitive_cell>
  <structure name="primitive_cell" >
   <crystal>
    <varray name="basis" >
     <v>       7.95776143       0.00000000       0.00000000 </v>
     <v>       0.00000000       7.95776143       0.00000000 </v>
     <v>       0.00000000       0.00000000      12.55829233 </v>
    </varray>
    <i name="volume">    795.26600648 </i>
    <varray name="rec_basis" >
     <v>       0.12566348       0.00000000       0.00000000 </v>
     <v>       0.00000000       0.12566348       0.00000000 </v>
     <v>       0.00000000       0.00000000       0.07962866 </v>
    </varray>
   </crystal>
   <varray name="positions" >
    <v>       0.24898535       0.24898535       0.85207611 </v>
    <v>       0.75101465       0.24898535       0.85207611 </v>
    <v>       0.24898535       0.75101465       0.85207611 </v>
    <v>       0.75101465       0.75101465       0.85207611 </v>
    <v>       0.00000000       0.00000000       0.64888456 </v>
    <v>       0.50000000       0.00000000       0.64972297 </v>
    <v>       0.00000000       0.50000000       0.64972297 </v>
    <v>       0.50000000       0.50000000       0.65067431 </v>
    <v>       0.00000000       0.00000000       0.35111544 </v>
    <v>       0.50000000       0.00000000       0.35027703 </v>
    <v>       0.00000000       0.50000000       0.35027703 </v>
    <v>       0.50000000       0.50000000       0.34932569 </v>
    <v>       0.24898535       0.24898535       0.14792389 </v>
    <v>       0.75101465       0.24898535       0.14792389 </v>
    <v>       0.24898535       0.75101465       0.14792389 </v>
    <v>       0.75101465       0.75101465       0.14792389 </v>
    <v>       0.50000000       0.00000000       0.00000000 </v>
    <v>       0.00000000       0.50000000       0.00000000 </v>
    <v>       0.50000000       0.50000000       0.00000000 </v>
    <v>       0.24979031       0.24979031       0.50000000 </v>
    <v>       0.75020969       0.24979031       0.50000000 </v>
    <v>       0.24979031       0.75020969       0.50000000 </v>
    <v>       0.75020969       0.75020969       0.50000000 </v>
    <v>       0.00000000       0.24964314       0.75058531 </v>
    <v>       0.50000000       0.24977991       0.75128554 </v>
    <v>       0.00000000       0.75035686       0.75058531 </v>
    <v>       0.50000000       0.75022009       0.75128554 </v>
    <v>       0.24964314       0.00000000       0.75058531 </v>
    <v>       0.75035686       0.00000000       0.75058531 </v>
    <v>       0.24977991       0.50000000       0.75128554 </v>
    <v>       0.75022009       0.50000000       0.75128554 </v>
    <v>       0.24964314       0.00000000       0.24941469 </v>
    <v>       0.75035686       0.00000000       0.24941469 </v>
    <v>       0.24977991       0.50000000       0.24871446 </v>
    <v>       0.75022009       0.50000000       0.24871446 </v>
    <v>       0.00000000       0.24964314       0.24941469 </v>
    <v>       0.50000000       0.24977991       0.24871446 </v>
    <v>       0.00000000       0.75035686       0.24941469 </v>
    <v>       0.50000000       0.75022009       0.24871446 </v>
    <v>       0.00000000       0.00000000       0.00000000 </v>
   </varray>
  </structure>
  <varray name="primitive_index" >
   <v type="int" >        1 </v>
   <v type="int" >        2 </v>
   <v type="int" >        3 </v>
   <v type="int" >        4 </v>
   <v type="int" >        5 </v>
   <v type="int" >        6 </v>
   <v type="int" >        7 </v>
   <v type="int" >        8 </v>
   <v type="int" >        9 </v>
   <v type="int" >       10 </v>
   <v type="int" >       11 </v>
   <v type="int" >       12 </v>
   <v type="int" >       13 </v>
   <v type="int" >       14 </v>
   <v type="int" >       15 </v>
   <v type="int" >       16 </v>
   <v type="int" >       17 </v>
   <v type="int" >       18 </v>
   <v type="int" >       19 </v>
   <v type="int" >       20 </v>
   <v type="int" >       21 </v>
   <v type="int" >       22 </v>
   <v type="int" >       23 </v>
   <v type="int" >       24 </v>
   <v type="int" >       25 </v>
   <v type="int" >       26 </v>
   <v type="int" >       27 </v>
   <v type="int" >       28 </v>
   <v type="int" >       29 </v>
   <v type="int" >       30 </v>
   <v type="int" >       31 </v>
   <v type="int" >       32 </v>
   <v type="int" >       33 </v>
   <v type="int" >       34 </v>
   <v type="int" >       35 </v>
   <v type="int" >       36 </v>
   <v type="int" >       37 </v>
   <v type="int" >       38 </v>
   <v type="int" >       39 </v>
   <v type="int" >       40 </v>
  </varray>
 </primitive_cell>
 <kpoints>
  <generation param="Gamma">
   <v type="int" name="divisions">       4        4        3 </v>
   <v name="usershift">      0.00000000       0.00000000       0.00000000 </v>
   <v name="genvec1">      0.25000000       0.00000000       0.00000000 </v>
   <v name="genvec2">      0.00000000       0.25000000       0.00000000 </v>
   <v name="genvec3">      0.00000000       0.00000000       0.33333333 </v>
   <v name="shift">      0.00000000       0.00000000       0.00000000 </v>
  </generation>
  <varray name="kpointlist" >
   <v>       0.00000000       0.00000000       0.00000000 </v>
   <v>       0.25000000       0.00000000       0.00000000 </v>
   <v>       0.50000000       0.00000000       0.00000000 </v>
   <v>       0.25000000       0.25000000       0.00000000 </v>
   <v>       0.50000000       0.25000000       0.00000000 </v>
   <v>       0.50000000       0.50000000       0.00000000 </v>
   <v>       0.00000000       0.00000000       0.33333333 </v>
   <v>       0.25000000       0.00000000       0.33333333 </v>
   <v>       0.50000000       0.00000000       0.33333333 </v>
   <v>       0.25000000       0.25000000       0.33333333 </v>
   <v>       0.50000000       0.25000000       0.33333333 </v>
   <v>       0.50000000       0.50000000       0.33333333 </v>
  </varray>
  <varray name="weights" >
   <v>       0.02083333 </v>
   <v>       0.08333333 </v>
   <v>       0.04166667 </v>
   <v>       0.08333333 </v>
   <v>       0.08333333 </v>
   <v>       0.02083333 </v>
   <v>       0.04166667 </v>
   <v>       0.16666667 </v>
   <v>       0.08333333 </v>
   <v>       0.16666667 </v>
   <v>       0.16666667 </v>
   <v>       0.04166667 </v>
  </varray>
 </kpoints>
 <parameters>
  <separator name="general" >
   <i type="string" name="SYSTEM">unknown system</i>
   <i type="logical" name="LCOMPAT"> F  </i>
  </separator>
  <separator name="electronic" >
   <i type="string" name="PREC">accura</i>
   <i name="ENMAX">    520.00000000</i>
   <i name="ENAUG">    605.39200000</i>
   <i name="EDIFF">      0.00000001</i>
   <i type="int" name="IALGO">    38</i>
   <i type="int" name="IWAVPR">    11</i>
   <i type="int" name="NBANDS">   232</i>
   <i type="int" name="NBANDSLOW">    -1</i>
   <i type="int" name="NBANDSHIGH">    -1</i>
   <i name="NELECT">    384.00000000</i>
   <i type="int" name="TURBO">     0</i>
   <i type="int" name="IRESTART">     0</i>
   <i type="int" name="NREBOOT">     0</i>
   <i type="int" name="NMIN">     0</i>
   <i name="EREF">      0.00000000</i>
   <separator name="electronic smearing" >
    <i type="int" name="ISMEAR">     0</i>
    <i name="SIGMA">      0.05000000</i>
    <i name="KSPACING">      0.50000000</i>
    <i type="logical" name="KGAMMA"> T  </i>
    <i type="logical" name="KBLOWUP"> T  </i>
   </separator>
   <separator name="electronic projectors" >
    <i type="logical" name="LREAL"> F  </i>
    <v name="ROPT">      0.00000000      0.00000000      0.00000000      0.00000000</v>
    <i type="int" name="LMAXPAW">  -100</i>
    <i type="int" name="LMAXMIX">     2</i>
    <i type="logical" name="NLSPLINE"> F  </i>
   </separator>
   <separator name="electronic startup" >
    <i type="int" name="ISTART">     0</i>
    <i type="int" name="ICHARG">     2</i>
    <i type="int" name="INIWAV">     1</i>
   </separator>
   <separator name="electronic spin" >
    <i type="int" name="ISPIN">     1</i>
    <i type="logical" name="LNONCOLLINEAR"> F  </i>
    <v name="MAGMOM">      1.00000000      1.00000000      1.00000000      1.00000000      1.00000000      1.00000000      1.00000000      1.00000000      1.00000000      1.00000000      1.00000000      1.00000000      1.00000000      1.00000000      1.00000000      1.00000000      1.00000000      1.00000000      1.00000000      1.00000000
      1.00000000      1.00000000      1.00000000      1.00000000      1.00000000      1.00000000      1.00000000      1.00000000      1.00000000      1.00000000      1.00000000      1.00000000      1.00000000      1.00000000      1.00000000      1.00000000      1.00000000      1.00000000      1.00000000      1.00000000
</v>
    <i name="NUPDOWN">     -1.00000000</i>
    <i type="logical" name="LSORBIT"> F  </i>
    <v name="SAXIS">      0.00000000      0.00000000      1.00000000</v>
    <i type="logical" name="LSPIRAL"> F  </i>
    <v name="QSPIRAL">      0.00000000      0.00000000      0.00000000</v>
    <i type="logical" name="LZEROZ"> F  </i>
   </separator>
   <separator name="electronic exchange-correlation" >
    <i type="logical" name="LASPH"> F  </i>
   </separator>
   <separator name="electronic convergence" >
    <i type="int" name="NELM">    60</i>
    <i type="int" name="NELMDL">    -5</i>
    <i type="int" name="NELMIN">     5</i>
    <i name="ENINI">    520.00000000</i>
    <separator name="electronic convergence detail" >
     <i type="logical" name="LDIAG"> T  </i>
     <i type="logical" name="LSUBROT"> F  </i>
     <i name="WEIMIN">      0.00100000</i>
     <i name="EBREAK">      0.00000000</i>
     <i name="DEPER">      0.30000000</i>
     <i type="int" name="NRMM">     4</i>
     <i name="TIME">      0.40000000</i>
    </separator>
   </separator>
   <separator name="electronic mixer" >
    <i name="AMIX">      0.40000000</i>
    <i name="BMIX">      1.00000000</i>
    <i name="AMIN">      0.10000000</i>
    <i name="AMIX_MAG">      1.60000000</i>
    <i name="BMIX_MAG">      1.00000000</i>
    <separator name="electronic mixer details" >
     <i type="int" name="IMIX">     4</i>
     <i type="logical" name="MIXFIRST"> F  </i>
     <i type="int" name="MAXMIX">   -45</i>
     <i name="WC">    100.00000000</i>
     <i type="int" name="INIMIX">     1</i>
     <i type="int" name="MIXPRE">     1</i>
     <i type="int" name="MREMOVE">     5</i>
    </separator>
   </separator>
   <separator name="electronic dipolcorrection" >
    <i type="logical" name="LDIPOL"> F  </i>
    <i type="logical" name="LMONO"> F  </i>
    <i type="int" name="IDIPOL">     0</i>
    <i name="EPSILON">      1.00000000</i>
    <v name="DIPOL">   -100.00000000   -100.00000000   -100.00000000</v>
    <i name="EFIELD">      0.00000000</i>
    <i type="logical" name="LVACPOTAV"> F  </i>
   </separator>
  </separator>
  <separator name="grids" >
   <i type="int" name="NGX">    60</i>
   <i type="int" name="NGY">    60</i>
   <i type="int" name="NGZ">    96</i>
   <i type="int" name="NGXF">   120</i>
   <i type="int" name="NGYF">   120</i>
   <i type="int" name="NGZF">   192</i>
   <i type="logical" name="ADDGRID"> T  </i>
  </separator>
  <separator name="ionic" >
   <i type="int" name="NSW">   100</i>
   <i type="int" name="IBRION">     2</i>
   <i type="int" name="MDALGO">     0</i>
   <i type="int" name="ISIF">     2</i>
   <i name="PSTRESS">      0.00000000</i>
   <i name="EDIFFG">     -0.00001000</i>
   <i type="int" name="NFREE">     1</i>
   <i name="POTIM">      0.50000000</i>
   <i name="SMASS">     -3.00000000</i>
   <i name="SCALEE">      1.00000000</i>
  </separator>
  <separator name="ionic md" >
   <i name="TEBEG">      0.00010000</i>
   <i name="TEEND">      0.00010000</i>
   <i type="int" name="NBLOCK">     1</i>
   <i type="int" name="KBLOCK">   100</i>
   <i type="int" name="NPACO">   256</i>
   <i name="APACO">     10.00000000</i>
  </separator>
  <separator name="symmetry" >
   <i type="int" name="ISYM">     2</i>
   <i name="SYMPREC">      0.00001000</i>
  </separator>
  <separator name="dos" >
   <i type="int" name="LORBIT">     0</i>
   <v name="RWIGS">     -1.00000000     -1.00000000     -1.00000000     -1.00000000</v>
   <i type="int" name="NEDOS">   301</i>
   <i name="EMIN">     10.00000000</i>
   <i name="EMAX">    -10.00000000</i>
   <i name="EFERMI">      0.00000000</i>
  </separator>
  <separator name="writing" >
   <i type="int" name="NWRITE">     2</i>
   <i type="logical" name="LWAVE"> F  </i>
   <i type="logical" name="LDOWNSAMPLE"> F  </i>
   <i type="logical" name="LCHARG"> F  </i>
   <i type="logical" name="LPARD"> F  </i>
   <i type="logical" name="LVTOT"> F  </i>
   <i type="logical" name="LVHAR"> F  </i>
   <i type="logical" name="LELF"> F  </i>
   <i type="logical" name="LOPTICS"> F  </i>
   <v name="STM">      0.00000000      0.00000000      0.00000000      0.00000000      0.00000000      0.00000000      0.00000000</v>
  </separator>
  <separator name="performance" >
   <i type="int" name="NPAR">     4</i>
   <i type="int" name="NSIM">     4</i>
   <i type="int" name="NBLK">    -1</i>
   <i type="logical" name="LPLANE"> T  </i>
   <i type="logical" name="LSCALAPACK"> T  </i>
   <i type="logical" name="LSCAAWARE"> F  </i>
   <i type="logical" name="LSCALU"> F  </i>
   <i type="logical" name="LASYNC"> F  </i>
   <i type="logical" name="LORBITALREAL"> F  </i>
  </separator>
  <separator name="miscellaneous" >
   <i type="int" name="IDIOT">     3</i>
   <i type="int" name="PHON_NSTRUCT">    -1</i>
   <i type="logical" name="LMUSIC"> F  </i>
   <v name="POMASS">    208.98000000     78.96000000     16.00000000     32.06600000</v>
   <v name="DARWINR">      0.00000000      0.00000000      0.00000000      0.00000000</v>
   <v name="DARWINV">      1.00000000      1.00000000      1.00000000      1.00000000</v>
   <i type="logical" name="LCORR"> T  </i>
  </separator>
  <i type="logical" name="GGA_COMPAT"> T  </i>
  <i type="logical" name="LBERRY"> F  </i>
  <i type="int" name="ICORELEVEL">     0</i>
  <i type="logical" name="LDAU"> F  </i>
  <i type="int" name="I_CONSTRAINED_M">     0</i>
  <separator name="electronic exchange-correlation" >
   <i type="string" name="GGA    ">PE</i>
   <i type="string" name="XC_C">1</i>
   <i type="int" name="VOSKOWN">     0</i>
   <i type="logical" name="LHFCALC"> F  </i>
   <i type="string" name="PRECFOCK"></i>
   <i type="logical" name="LSYMGRAD"> F  </i>
   <i type="logical" name="LHFONE"> F  </i>
   <i type="logical" name="LRHFCALC"> F  </i>
   <i type="logical" name="LTHOMAS"> F  </i>
   <i type="logical" name="LMODELHF"> F  </i>
   <i type="logical" name="LFOCKACE"> F  </i>
   <i name="ENCUT4O">     -1.00000000</i>
   <i type="int" name="EXXOEP">     0</i>
   <i type="int" name="FOURORBIT">     0</i>
   <i name="AEXX">      0.00000000</i>
   <i name="HFALPHA">      0.00000000</i>
   <i name="MCALPHA">      0.00000000</i>
   <i name="ALDAX">      1.00000000</i>
   <i name="AGGAX">      1.00000000</i>
   <i name="AMGGAX">      1.00000000</i>
   <i name="ALDAC">      1.00000000</i>
   <i name="AGGAC">      1.00000000</i>
   <i name="AMGGAC">      1.00000000</i>
   <i type="int" name="NKREDX">     1</i>
   <i type="int" name="NKREDY">     1</i>
   <i type="int" name="NKREDZ">     1</i>
   <i type="logical" name="SHIFTRED"> F  </i>
   <i type="logical" name="ODDONLY"> F  </i>
   <i type="logical" name="EVENONLY"> F  </i>
   <i type="int" name="LMAXFOCK">     0</i>
   <i type="int" name="NMAXFOCKAE">     0</i>
   <i type="logical" name="LFOCKAEDFT"> F  </i>
   <i name="HFSCREEN">      0.00000000</i>
   <i name="HFSCREENC">      0.00000000</i>
   <i type="int" name="NBANDSGWLOW">     0</i>
  </separator>
  <separator name="vdW DFT" >
   <i type="logical" name="LUSE_VDW"> F  </i>
   <i type="int" name="IVDW_NL">    -1</i>
   <i type="logical" name="LSPIN_VDW"> F  </i>
   <i name="ZAB_VDW">     -0.84910000</i>
   <i name="GAMMA_VDW">      1.39626340</i>
   <i name="ALPHA_VDW">      0.00000000</i>
   <i name="PARAM1">      0.12340000</i>
   <i name="PARAM2">      1.00000000</i>
   <i name="BPARAM">      6.30000000</i>
   <i name="CPARAM">      0.00930000</i>
  </separator>
  <separator name="model GW" >
   <i type="int" name="MODEL_GW">     0</i>
   <i name="MODEL_EPS0">     11.92899010</i>
   <i name="MODEL_ALPHA">      1.00000000</i>
  </separator>
  <separator name="linear response parameters" >
   <i type="logical" name="LEPSILON"> F  </i>
   <i type="logical" name="LRPA"> F  </i>
   <i type="logical" name="LNABLA"> F  </i>
   <i type="logical" name="LVEL"> F  </i>
   <i name="CSHIFT">      0.10000000</i>
   <i name="OMEGAMAX">     -1.00000000</i>
   <i name="DEG_THRESHOLD">      0.00200000</i>
   <i name="RTIME">     -0.10000000</i>
   <i name="WPLASMAI">      0.00000000</i>
   <v name="DFIELD">      0.00000000      0.00000000      0.00000000</v>
   <v name="WPLASMA">      0.00000000      0.00000000      0.00000000      0.00000000      0.00000000      0.00000000      0.00000000      0.00000000      0.00000000</v>
  </separator>
  <separator name="orbital magnetization" >
   <i type="logical" name="NUCIND"> F  </i>
   <v name="MAGPOS">      0.00000000      0.00000000      0.00000000</v>
   <i type="logical" name="LNICSALL"> T  </i>
   <i type="logical" name="ORBITALMAG"> F  </i>
   <i type="logical" name="LMAGBLOCH"> F  </i>
   <i type="logical" name="LCHIMAG"> F  </i>
   <i type="logical" name="LGAUGE"> T  </i>
   <i type="int" name="MAGATOM">     0</i>
   <v name="MAGDIPOL">      0.00000000      0.00000000      0.00000000</v>
   <v name="AVECCONST">      0.00000000      0.00000000      0.00000000</v>
  </separator>
  <separator name="response functions" >
   <i type="logical" name="LALL_IN_ONE"> F  </i>
   <i type="int" name="IALL_IN_ONE">    -1</i>
   <i type="int" name="NBANDS_WAVE">    -1</i>
   <i type="logical" name="LFINITE_TEMPERATURE"> F  </i>
   <i type="logical" name="LADDER"> F  </i>
   <i type="logical" name="LRPAFORCE"> F  </i>
   <i type="logical" name="LFXC"> F  </i>
   <i type="logical" name="LHARTREE"> T  </i>
   <i type="int" name="IBSE">     0</i>
   <v type="int" name="KPOINT">    -1     0     0     0</v>
   <i type="logical" name="LTCTC"> F  </i>
   <i type="logical" name="LTCTE"> F  </i>
   <i type="logical" name="LTETE"> F  </i>
   <i type="logical" name="LTRIPLET"> F  </i>
   <i type="logical" name="LFXCEPS"> F  </i>
   <i type="logical" name="LFXHEG"> F  </i>
   <i type="int" name="NATURALO">     2</i>
   <i type="logical" name="LHOLEGF"> F  </i>
   <i type="logical" name="L2ORDER"> F  </i>
   <i type="logical" name="LDMP1"> F  </i>
   <i type="logical" name="LMP2LT"> F  </i>
   <i type="logical" name="LSMP2LT"> F  </i>
   <i type="logical" name="LGWLF"> F  </i>
   <i name="ENCUTGW">     -1.60000002</i>
   <i name="ENCUTGWSOFT">     -1.60000002</i>
   <i name="ENCUTLF">     -1.00000000</i>
   <i type="logical" name="ESF_SPLINES"> F  </i>
   <i name="ESF_CONV">      0.01000000</i>
   <i type="int" name="ESF_NINTER">    15</i>
   <i type="int" name="LMAXMP2">    -1</i>
   <i name="SCISSOR">      0.00000000</i>
   <i type="int" name="NOMEGA">     0</i>
   <i type="int" name="NOMEGAR">     0</i>
   <i type="int" name="NBANDSGW">    -1</i>
   <i type="int" name="NBANDSO">    -1</i>
   <i type="int" name="NBANDSV">    -1</i>
   <i type="int" name="NELMGW">     1</i>
   <i type="int" name="NELMHF">     1</i>
   <i type="int" name="DIM">     3</i>
   <i type="int" name="IESPILON">     4</i>
   <i type="int" name="ANTIRES">     0</i>
   <i name="OMEGAMAX">    -30.00000000</i>
   <i name="OMEGAMIN">    -30.00000000</i>
   <i name="OMEGATL">   -200.00000000</i>
   <i type="int" name="OMEGAGRID">     0</i>
   <i name="CSHIFT">     -0.10000000</i>
   <i type="logical" name="LSELFENERGY"> F  </i>
   <i type="logical" name="LSPECTRAL"> F  </i>
   <i type="logical" name="LSPECTRALGW"> F  </i>
   <i type="logical" name="LSINGLES"> F  </i>
   <i type="logical" name="LFERMIGW"> F  </i>
   <i type="logical" name="ODDONLYGW"> F  </i>
   <i type="logical" name="EVENONLYGW"> F  </i>
   <i type="int" name="NKREDLFX">     1</i>
   <i type="int" name="NKREDLFY">     1</i>
   <i type="int" name="NKREDLFZ">     1</i>
   <i type="int" name="MAXMEM">  2800</i>
   <i type="int" name="TELESCOPE">     0</i>
   <i type="int" name="NTAUPAR">    -1</i>
   <i type="int" name="NOMEGAPAR">    -1</i>
   <i name="DAMP_NEWTON">      0.80000001</i>
   <i name="LAMBDA">      1.00000000</i>
  </separator>
  <separator name="External order field" >
   <i name="OFIELD_KAPPA">      0.00000000</i>
   <v name="OFIELD_K">      0.00000000      0.00000000      0.00000000</v>
   <i name="OFIELD_Q6_NEAR">      0.00000000</i>
   <i name="OFIELD_Q6_FAR">      0.00000000</i>
   <i name="OFIELD_A">      0.00000000</i>
  </separator>
  <separator name="optional k-points parameters" >
   <i type="int" name="KPOINTS_OPT_MODE">     1</i>
   <i type="logical" name="LKPOINTS_OPT"> F  </i>
  </separator>
 </parameters>
 <atominfo>
  <atoms>      40 </atoms>
  <types>       4 </types>
  <array name="atoms" >
   <dimension dim="1">ion</dimension>
   <field type="string">element</field>
   <field type="int">atomtype</field>
   <set>
    <rc><c>Bi</c><c>   1</c></rc>
    <rc><c>Bi</c><c>   1</c></rc>
    <rc><c>Bi</c><c>   1</c></rc>
    <rc><c>Bi</c><c>   1</c></rc>
    <rc><c>Bi</c><c>   1</c></rc>
    <rc><c>Bi</c><c>   1</c></rc>
    <rc><c>Bi</c><c>   1</c></rc>
    <rc><c>Bi</c><c>   1</c></rc>
    <rc><c>Bi</c><c>   1</c></rc>
    <rc><c>Bi</c><c>   1</c></rc>
    <rc><c>Bi</c><c>   1</c></rc>
    <rc><c>Bi</c><c>   1</c></rc>
    <rc><c>Bi</c><c>   1</c></rc>
    <rc><c>Bi</c><c>   1</c></rc>
    <rc><c>Bi</c><c>   1</c></rc>
    <rc><c>Bi</c><c>   1</c></rc>
    <rc><c>Se</c><c>   2</c></rc>
    <rc><c>Se</c><c>   2</c></rc>
    <rc><c>Se</c><c>   2</c></rc>
    <rc><c>Se</c><c>   2</c></rc>
    <rc><c>Se</c><c>   2</c></rc>
    <rc><c>Se</c><c>   2</c></rc>
    <rc><c>Se</c><c>   2</c></rc>
    <rc><c>O </c><c>   3</c></rc>
    <rc><c>O </c><c>   3</c></rc>
    <rc><c>O </c><c>   3</c></rc>
    <rc><c>O </c><c>   3</c></rc>
    <rc><c>O </c><c>   3</c></rc>
    <rc><c>O </c><c>   3</c></rc>
    <rc><c>O </c><c>   3</c></rc>
    <rc><c>O </c><c>   3</c></rc>
    <rc><c>O </c><c>   3</c></rc>
    <rc><c>O </c><c>   3</c></rc>
    <rc><c>O </c><c>   3</c></rc>
    <rc><c>O </c><c>   3</c></rc>
    <rc><c>O </c><c>   3</c></rc>
    <rc><c>O </c><c>   3</c></rc>
    <rc><c>O </c><c>   3</c></rc>
    <rc><c>O </c><c>   3</c></rc>
    <rc><c>S </c><c>   4</c></rc>
   </set>
  </array>
  <array name="atomtypes" >
   <dimension dim="1">type</dimension>
   <field type="int">atomspertype</field>
   <field type="string">element</field>
   <field>mass</field>
   <field>valence</field>
   <field type="string">pseudopotential</field>
   <set>
    <rc><c>  16</c><c>Bi</c><c>    208.98000000</c><c>     15.00000000</c><c>  PAW_PBE Bi_d 06Sep2000                </c></rc>
    <rc><c>   7</c><c>Se</c><c>     78.96000000</c><c>      6.00000000</c><c>  PAW_PBE Se 06Sep2000                  </c></rc>
    <rc><c>  16</c><c>O </c><c>     16.00000000</c><c>      6.00000000</c><c>  PAW_PBE O 08Apr2002                   </c></rc>
    <rc><c>   1</c><c>S </c><c>     32.06600000</c><c>      6.00000000</c><c>  PAW_PBE S 06Sep2000                   </c></rc>
   </set>
  </array>
 </atominfo>
 <structure name="initialpos" >
  <crystal>
   <varray name="basis" >
    <v>       7.95776143       0.00000000       0.00000000 </v>
    <v>       0.00000000       7.95776143       0.00000000 </v>
    <v>       0.00000000       0.00000000      12.55829233 </v>
   </varray>
   <i name="volume">    795.26600648 </i>
   <varray name="rec_basis" >
    <v>       0.12566348       0.00000000       0.00000000 </v>
    <v>       0.00000000       0.12566348       0.00000000 </v>
    <v>       0.00000000       0.00000000       0.07962866 </v>
   </varray>
  </crystal>
  <varray name="positions" >
   <v>       0.24898535       0.24898535       0.85207611 </v>
   <v>       0.75101465       0.24898535       0.85207611 </v>
   <v>       0.24898535       0.75101465       0.85207611 </v>
   <v>       0.75101465       0.75101465       0.85207611 </v>
   <v>       0.00000000       0.00000000       0.64888456 </v>
   <v>       0.50000000       0.00000000       0.64972297 </v>
   <v>       0.00000000       0.50000000       0.64972297 </v>
   <v>       0.50000000       0.50000000       0.65067431 </v>
   <v>       0.00000000       0.00000000       0.35111544 </v>
   <v>       0.50000000       0.00000000       0.35027703 </v>
   <v>       0.00000000       0.50000000       0.35027703 </v>
   <v>       0.50000000       0.50000000       0.34932569 </v>
   <v>       0.24898535       0.24898535       0.14792389 </v>
   <v>       0.75101465       0.24898535       0.14792389 </v>
   <v>       0.24898535       0.75101465       0.14792389 </v>
   <v>       0.75101465       0.75101465       0.14792389 </v>
   <v>       0.50000000       0.00000000       0.00000000 </v>
   <v>       0.00000000       0.50000000       0.00000000 </v>
   <v>       0.50000000       0.50000000       0.00000000 </v>
   <v>       0.24979031       0.24979031       0.50000000 </v>
   <v>       0.75020969       0.24979031       0.50000000 </v>
   <v>       0.24979031       0.75020969       0.50000000 </v>
   <v>       0.75020969       0.75020969       0.50000000 </v>
   <v>       0.00000000       0.24964314       0.75058531 </v>
   <v>       0.50000000       0.24977991       0.75128554 </v>
   <v>       0.00000000       0.75035686       0.75058531 </v>
   <v>       0.50000000       0.75022009       0.75128554 </v>
   <v>       0.24964314       0.00000000       0.75058531 </v>
   <v>       0.75035686       0.00000000       0.75058531 </v>
   <v>       0.24977991       0.50000000       0.75128554 </v>
   <v>       0.75022009       0.50000000       0.75128554 </v>
   <v>       0.24964314       0.00000000       0.24941469 </v>
   <v>       0.75035686       0.00000000       0.24941469 </v>
   <v>       0.24977991       0.50000000       0.24871446 </v>
   <v>       0.75022009       0.50000000       0.24871446 </v>
   <v>       0.00000000       0.24964314       0.24941469 </v>
   <v>       0.50000000       0.24977991       0.24871446 </v>
   <v>       0.00000000       0.75035686       0.24941469 </v>
   <v>       0.50000000       0.75022009       0.24871446 </v>
   <v>       0.00000000       0.00000000       0.00000000 </v>
  </varray>
 </structure>
 <calculation>
  <scstep>
   <time name="dav">   33.42   33.42</time>
   <time name="total">   34.24   34.25</time>
   <energy>
    <i name="alphaZ">   1270.21168223 </i>
    <i name="ewald"> -28802.92373824 </i>
    <i name="hartreedc"> -11803.65987120 </i>
    <i name="XCdc">   1230.60540155 </i>
    <i name="pawpsdc">  34040.00696010 </i>
    <i name="pawaedc"> -33495.80632930 </i>
    <i name="eentropy">     -0.01074955 </i>
    <i name="bandstr">   2713.25246196 </i>
    <i name="atom">  40341.65184589 </i>
    <i name="e_fr_energy">   5493.32766343 </i>
    <i name="e_wo_entrp">   5493.33841298 </i>
    <i name="e_0_energy">   5493.33303821 </i>
   </energy>
  </scstep>
  <scstep>
   <time name="dav">   33.45   33.46</time>
   <time name="total">   33.45   33.46</time>
   <energy>
    <i name="e_fr_energy">    918.63541047 </i>
    <i name="e_wo_entrp">    918.64714428 </i>
    <i name="e_0_energy">    918.64127737 </i>
   </energy>
  </scstep>
  <scstep>
   <time name="dav">   36.04   36.04</time>
   <time name="total">   36.04   36.04</time>
   <energy>
    <i name="e_fr_energy">   -116.15172074 </i>
    <i name="e_wo_entrp">   -116.15172074 </i>
    <i name="e_0_energy">   -116.15172074 </i>
   </energy>
  </scstep>
  <scstep>
   <time name="dav">   37.80   37.82</time>
   <time name="total">   37.81   37.82</time>
   <energy>
    <i name="e_fr_energy">   -237.93566267 </i>
    <i name="e_wo_entrp">   -237.93566267 </i>
    <i name="e_0_energy">   -237.93566267 </i>
   </energy>
  </scstep>
  <scstep>
   <time name="dav">   38.62   38.62</time>
   <time name="total">   39.85   39.85</time>
   <energy>
    <i name="e_fr_energy">   -243.72684573 </i>
    <i name="e_wo_entrp">   -243.72684573 </i>
    <i name="e_0_energy">   -243.72684573 </i>
   </energy>
  </scstep>
  <scstep>
   <time name="dav">   42.03   42.05</time>
   <time name="total">   44.10   44.12</time>
   <energy>
    <i name="e_fr_energy">   -208.96944724 </i>
    <i name="e_wo_entrp">   -208.96944724 </i>
    <i name="e_0_energy">   -208.96944724 </i>
   </energy>
  </scstep>
  <scstep>
   <time name="dav">   35.88   35.90</time>
   <time name="total">   37.95   37.98</time>
   <energy>
    <i name="e_fr_energy">   -208.45435808 </i>
    <i name="e_wo_entrp">   -208.45435749 </i>
    <i name="e_0_energy">   -208.45435779 </i>
   </energy>
  </scstep>
  <scstep>
   <time name="dav">   42.22   42.22</time>
   <time name="total">   44.29   44.30</time>
   <energy>
    <i name="e_fr_energy">   -208.60595448 </i>
    <i name="e_wo_entrp">   -208.60590226 </i>
    <i name="e_0_energy">   -208.60592837 </i>
   </energy>
  </scstep>
  <scstep>
   <time name="dav">   41.21   41.22</time>
   <time name="total">   43.28   43.29</time>
   <energy>
    <i name="e_fr_energy">   -208.53982806 </i>
    <i name="e_wo_entrp">   -208.53982653 </i>
    <i name="e_0_energy">   -208.53982730 </i>
   </energy>
  </scstep>
  <scstep>
   <time name="dav">   39.65   39.65</time>
   <time name="total">   41.72   41.72</time>
   <energy>
    <i name="e_fr_energy">   -208.52620561 </i>
    <i name="e_wo_entrp">   -208.52619703 </i>
    <i name="e_0_energy">   -208.52620132 </i>
   </energy>
  </scstep>
  <scstep>
   <time name="dav">   41.93   41.93</time>
   <time name="total">   44.00   44.00</time>
   <energy>
    <i name="e_fr_energy">   -208.52868637 </i>
    <i name="e_wo_entrp">   -208.52867806 </i>
    <i name="e_0_energy">   -208.52868222 </i>
   </energy>
  </scstep>
  <scstep>
   <time name="dav">   42.06   42.06</time>
   <time name="total">   44.13   44.13</time>
   <energy>
    <i name="e_fr_energy">   -208.52992037 </i>
    <i name="e_wo_entrp">   -208.52991321 </i>
    <i name="e_0_energy">   -208.52991679 </i>
   </energy>
  </scstep>
  <scstep>
   <time name="dav">   37.41   37.41</time>
   <time name="total">   39.48   39.48</time>
   <energy>
    <i name="e_fr_energy">   -208.52987702 </i>
    <i name="e_wo_entrp">   -208.52986995 </i>
    <i name="e_0_energy">   -208.52987348 </i>
   </energy>
  </scstep>
  <scstep>
   <time name="dav">   38.26   38.27</time>
   <time name="total">   40.33   40.34</time>
   <energy>
    <i name="e_fr_energy">   -208.52981964 </i>
    <i name="e_wo_entrp">   -208.52981243 </i>
    <i name="e_0_energy">   -208.52981603 </i>
   </energy>
  </scstep>
  <scstep>
   <time name="dav">   44.18   44.21</time>
   <time name="total">   46.25   46.28</time>
   <energy>
    <i name="e_fr_energy">   -208.52980317 </i>
    <i name="e_wo_entrp">   -208.52979579 </i>
    <i name="e_0_energy">   -208.52979948 </i>
   </energy>
  </scstep>
  <scstep>
   <time name="dav">   37.33   37.33</time>
   <time name="total">   39.40   39.40</time>
   <energy>
    <i name="e_fr_energy">   -208.52980091 </i>
    <i name="e_wo_entrp">   -208.52979349 </i>
    <i name="e_0_energy">   -208.52979720 </i>
   </energy>
  </scstep>
  <scstep>
   <time name="dav">   42.19   42.19</time>
   <time name="total">   44.27   44.27</time>
   <energy>
    <i name="e_fr_energy">   -208.52979869 </i>
    <i name="e_wo_entrp">   -208.52979119 </i>
    <i name="e_0_energy">   -208.52979494 </i>
   </energy>
  </scstep>
  <scstep>
   <time name="dav">   37.42   37.43</time>
   <time name="total">   39.49   39.50</time>
   <energy>
    <i name="e_fr_energy">   -208.52979849 </i>
    <i name="e_wo_entrp">   -208.52979101 </i>
    <i name="e_0_energy">   -208.52979475 </i>
   </energy>
  </scstep>
  <scstep>
   <time name="dav">   34.07   34.08</time>
   <time name="total">   36.14   36.16</time>
   <energy>
    <i name="e_fr_energy">   -208.52979870 </i>
    <i name="e_wo_entrp">   -208.52979122 </i>
    <i name="e_0_energy">   -208.52979496 </i>
   </energy>
  </scstep>
  <scstep>
   <time name="dav">   32.40   32.40</time>
   <time name="total">   34.48   34.48</time>
   <energy>
    <i name="e_fr_energy">   -208.52979879 </i>
    <i name="e_wo_entrp">   -208.52979131 </i>
    <i name="e_0_energy">   -208.52979505 </i>
   </energy>
  </scstep>
  <scstep>
   <time name="dav">   27.35   27.35</time>
   <time name="total">   29.42   29.42</time>
   <energy>
    <i name="e_fr_energy">   -208.52979885 </i>
    <i name="e_wo_entrp">   -208.52979137 </i>
    <i name="e_0_energy">   -208.52979511 </i>
   </energy>
  </scstep>
  <scstep>
   <time name="dav">   24.32   24.34</time>
   <time name="total">   26.39   26.41</time>
   <energy>
    <i name="e_fr_energy">   -208.52979886 </i>
    <i name="e_wo_entrp">   -208.52979139 </i>
    <i name="e_0_energy">   -208.52979512 </i>
   </energy>
  </scstep>
  <scstep>
   <time name="dav">   24.26   24.27</time>
   <time name="total">   25.08   25.09</time>
   <energy>
    <i name="alphaZ">   1270.21168223 </i>
    <i name="ewald"> -28802.92373824 </i>
    <i name="hartreedc"> -11954.57254398 </i>
    <i name="XCdc">   1247.32609837 </i>
    <i name="pawpsdc">  35928.29590905 </i>
    <i name="pawaedc"> -35321.07606681 </i>
    <i name="eentropy">     -0.00000748 </i>
    <i name="bandstr">  -2917.44297789 </i>
    <i name="atom">  40341.65184589 </i>
    <i name="e_fr_energy">   -208.52979885 </i>
    <i name="e_wo_entrp">   -208.52979138 </i>
    <i name="e_0_energy">   -208.52979512 </i>
   </energy>
  </scstep>
  <structure>
   <crystal>
    <varray name="basis" >
     <v>       7.95776143       0.00000000       0.00000000 </v>
     <v>       0.00000000       7.95776143       0.00000000 </v>
     <v>       0.00000000       0.00000000      12.55829233 </v>
    </varray>
    <i name="volume">    795.26600648 </i>
    <varray name="rec_basis" >
     <v>       0.12566348       0.00000000       0.00000000 </v>
     <v>       0.00000000       0.12566348       0.00000000 </v>
     <v>       0.00000000       0.00000000       0.07962866 </v>
    </varray>
   </crystal>
   <varray name="positions" >
    <v>       0.24898535       0.24898535       0.85207611 </v>
    <v>       0.75101465       0.24898535       0.85207611 </v>
    <v>       0.24898535       0.75101465       0.85207611 </v>
    <v>       0.75101465       0.75101465       0.85207611 </v>
    <v>       0.00000000       0.00000000       0.64888456 </v>
    <v>       0.50000000       0.00000000       0.64972297 </v>
    <v>       0.00000000       0.50000000       0.64972297 </v>
    <v>       0.50000000       0.50000000       0.65067431 </v>
    <v>       0.00000000       0.00000000       0.35111544 </v>
    <v>       0.50000000       0.00000000       0.35027703 </v>
    <v>       0.00000000       0.50000000       0.35027703 </v>
    <v>       0.50000000       0.50000000       0.34932569 </v>
    <v>       0.24898535       0.24898535       0.14792389 </v>
    <v>       0.75101465       0.24898535       0.14792389 </v>
    <v>       0.24898535       0.75101465       0.14792389 </v>
    <v>       0.75101465       0.75101465       0.14792389 </v>
    <v>       0.50000000       0.00000000       0.00000000 </v>
    <v>       0.00000000       0.50000000       0.00000000 </v>
    <v>       0.50000000       0.50000000       0.00000000 </v>
    <v>       0.24979031       0.24979031       0.50000000 </v>
    <v>       0.75020969       0.24979031       0.50000000 </v>
    <v>       0.24979031       0.75020969       0.50000000 </v>
    <v>       0.75020969       0.75020969       0.50000000 </v>
    <v>       0.00000000       0.24964314       0.75058531 </v>
    <v>       0.50000000       0.24977991       0.75128554 </v>
    <v>       0.00000000       0.75035686       0.75058531 </v>
    <v>       0.50000000       0.75022009       0.75128554 </v>
    <v>       0.24964314       0.00000000       0.75058531 </v>
    <v>       0.75035686       0.00000000       0.75058531 </v>
    <v>       0.24977991       0.50000000       0.75128554 </v>
    <v>       0.75022009       0.50000000       0.75128554 </v>
    <v>       0.24964314       0.00000000       0.24941469 </v>
    <v>       0.75035686       0.00000000       0.24941469 </v>
    <v>       0.24977991       0.50000000       0.24871446 </v>
    <v>       0.75022009       0.50000000       0.24871446 </v>
    <v>       0.00000000       0.24964314       0.24941469 </v>
    <v>       0.50000000       0.24977991       0.24871446 </v>
    <v>       0.00000000       0.75035686       0.24941469 </v>
    <v>       0.50000000       0.75022009       0.24871446 </v>
    <v>       0.00000000       0.00000000       0.00000000 </v>
   </varray>
  </structure>
  <varray name="forces" >
   <v>       0.00000083       0.00000083       0.00000794 </v>
   <v>      -0.00000083       0.00000083       0.00000794 </v>
   <v>       0.00000083      -0.00000083       0.00000794 </v>
   <v>      -0.00000083      -0.00000083       0.00000794 </v>
   <v>      -0.00000000       0.00000000      -0.00000186 </v>
   <v>       0.00000000       0.00000000       0.00000490 </v>
   <v>       0.00000000       0.00000000       0.00000490 </v>
   <v>      -0.00000000       0.00000000       0.00001618 </v>
   <v>       0.00000000       0.00000000       0.00000186 </v>
   <v>      -0.00000000       0.00000000      -0.00000490 </v>
   <v>       0.00000000       0.00000000      -0.00000490 </v>
   <v>       0.00000000       0.00000000      -0.00001618 </v>
   <v>       0.00000083       0.00000083      -0.00000794 </v>
   <v>      -0.00000083       0.00000083      -0.00000794 </v>
   <v>       0.00000083      -0.00000083      -0.00000794 </v>
   <v>      -0.00000083      -0.00000083      -0.00000794 </v>
   <v>      -0.00000000       0.00000000       0.00000000 </v>
   <v>      -0.00000000       0.00000000       0.00000000 </v>
   <v>      -0.00000000       0.00000000       0.00000000 </v>
   <v>      -0.00000115      -0.00000115       0.00000000 </v>
   <v>       0.00000115      -0.00000115       0.00000000 </v>
   <v>      -0.00000115       0.00000115       0.00000000 </v>
   <v>       0.00000115       0.00000115       0.00000000 </v>
   <v>       0.00000000       0.00000264       0.00000012 </v>
   <v>       0.00000000       0.00000500      -0.00000387 </v>
   <v>       0.00000000      -0.00000264       0.00000012 </v>
   <v>      -0.00000000      -0.00000500      -0.00000387 </v>
   <v>       0.00000264       0.00000000       0.00000012 </v>
   <v>      -0.00000264       0.00000000       0.00000012 </v>
   <v>       0.00000500       0.00000000      -0.00000387 </v>
   <v>      -0.00000500       0.00000000      -0.00000387 </v>
   <v>       0.00000264       0.00000000      -0.00000012 </v>
   <v>      -0.00000264       0.00000000      -0.00000012 </v>
   <v>       0.00000500       0.00000000       0.00000387 </v>
   <v>      -0.00000500       0.00000000       0.00000387 </v>
   <v>       0.00000000       0.00000264      -0.00000012 </v>
   <v>       0.00000000       0.00000500       0.00000387 </v>
   <v>       0.00000000      -0.00000264      -0.00000012 </v>
   <v>       0.00000000      -0.00000500       0.00000387 </v>
   <v>       0.00000000       0.00000000       0.00000000 </v>
  </varray>
  <varray name="stress" >
   <v>     -34.60492083       0.00000000      -0.00000000 </v>
   <v>       0.00000000     -34.60492083       0.00000000 </v>
   <v>       0.00000000       0.00000000     -25.89710346 </v>
  </varray>
  <energy>
   <i name="e_fr_energy">   -208.52979885 </i>
   <i name="e_wo_entrp">   -208.52979138 </i>
   <i name="e_0_energy">   -208.52979512 </i>
  </energy>
  <time name="totalsc">  912.22  912.43</time>
 </calculation>
 <calculation>
  <scstep>
   <time name="dav">   28.08   28.10</time>
   <time name="total">   30.15   30.18</time>
   <energy>
    <i name="alphaZ">   1270.21168223 </i>
    <i name="ewald"> -28802.92401716 </i>
    <i name="hartreedc"> -11954.57205074 </i>
    <i name="XCdc">   1247.32607430 </i>
    <i name="pawpsdc">  35928.29371340 </i>
    <i name="pawaedc"> -35321.07385949 </i>
    <i name="eentropy">     -0.00000748 </i>
    <i name="bandstr">  -2917.44317980 </i>
    <i name="atom">  40341.65184589 </i>
    <i name="e_fr_energy">   -208.52979885 </i>
    <i name="e_wo_entrp">   -208.52979137 </i>
    <i name="e_0_energy">   -208.52979511 </i>
   </energy>
  </scstep>
  <scstep>
   <time name="dav">   24.19   24.19</time>
   <time name="total">   26.26   26.26</time>
   <energy>
    <i name="e_fr_energy">   -208.52979884 </i>
    <i name="e_wo_entrp">   -208.52979137 </i>
    <i name="e_0_energy">   -208.52979511 </i>
   </energy>
  </scstep>
  <scstep>
   <time name="dav">   24.16   24.18</time>
   <time name="total">   26.23   26.25</time>
   <energy>
    <i name="e_fr_energy">   -208.52979884 </i>
    <i name="e_wo_entrp">   -208.52979137 </i>
    <i name="e_0_energy">   -208.52979510 </i>
   </energy>
  </scstep>
  <scstep>
   <time name="dav">   24.14   24.14</time>
   <time name="total">   26.21   26.21</time>
   <energy>
    <i name="e_fr_energy">   -208.52979884 </i>
    <i name="e_wo_entrp">   -208.52979137 </i>
    <i name="e_0_energy">   -208.52979510 </i>
   </energy>
  </scstep>
  <scstep>
   <time name="dav">   23.97   23.97</time>
   <time name="total">   24.79   24.80</time>
   <energy>
    <i name="alphaZ">   1270.21168223 </i>
    <i name="ewald"> -28802.92401716 </i>
    <i name="hartreedc"> -11954.57208341 </i>
    <i name="XCdc">   1247.32607817 </i>
    <i name="pawpsdc">  35928.29095477 </i>
    <i name="pawaedc"> -35321.07117570 </i>
    <i name="eentropy">     -0.00000748 </i>
    <i name="bandstr">  -2917.44307616 </i>
    <i name="atom">  40341.65184589 </i>
    <i name="e_fr_energy">   -208.52979884 </i>
    <i name="e_wo_entrp">   -208.52979137 </i>
    <i name="e_0_energy">   -208.52979510 </i>
   </energy>
  </scstep>
  <structure>
   <crystal>
    <varray name="basis" >
     <v>       7.95776143       0.00000000       0.00000000 </v>
     <v>       0.00000000       7.95776143       0.00000000 </v>
     <v>       0.00000000       0.00000000      12.55829233 </v>
    </varray>
    <i name="volume">    795.26600648 </i>
    <varray name="rec_basis" >
     <v>       0.12566348       0.00000000       0.00000000 </v>
     <v>       0.00000000       0.12566348       0.00000000 </v>
     <v>       0.00000000       0.00000000       0.07962866 </v>
    </varray>
   </crystal>
   <varray name="positions" >
    <v>       0.24898536       0.24898536       0.85207614 </v>
    <v>       0.75101464       0.24898536       0.85207614 </v>
    <v>       0.24898536       0.75101464       0.85207614 </v>
    <v>       0.75101464       0.75101464       0.85207614 </v>
    <v>       1.00000000       0.00000000       0.64888455 </v>
    <v>       0.50000000       0.00000000       0.64972299 </v>
    <v>       0.00000000       0.50000000       0.64972299 </v>
    <v>       0.50000000       0.50000000       0.65067437 </v>
    <v>       0.00000000       0.00000000       0.35111545 </v>
    <v>       0.50000000       0.00000000       0.35027701 </v>
    <v>       0.00000000       0.50000000       0.35027701 </v>
    <v>       0.50000000       0.50000000       0.34932563 </v>
    <v>       0.24898536       0.24898536       0.14792386 </v>
    <v>       0.75101464       0.24898536       0.14792386 </v>
    <v>       0.24898536       0.75101464       0.14792386 </v>
    <v>       0.75101464       0.75101464       0.14792386 </v>
    <v>       0.50000000       0.00000000       0.00000000 </v>
    <v>       1.00000000       0.50000000       0.00000000 </v>
    <v>       0.50000000       0.50000000       0.00000000 </v>
    <v>       0.24979030       0.24979030       0.50000000 </v>
    <v>       0.75020970       0.24979030       0.50000000 </v>
    <v>       0.24979030       0.75020970       0.50000000 </v>
    <v>       0.75020970       0.75020970       0.50000000 </v>
    <v>       0.00000000       0.24964316       0.75058531 </v>
    <v>       0.50000000       0.24977994       0.75128552 </v>
    <v>       0.00000000       0.75035684       0.75058531 </v>
    <v>       0.50000000       0.75022006       0.75128552 </v>
    <v>       0.24964316       0.00000000       0.75058531 </v>
    <v>       0.75035684       0.00000000       0.75058531 </v>
    <v>       0.24977994       0.50000000       0.75128552 </v>
    <v>       0.75022006       0.50000000       0.75128552 </v>
    <v>       0.24964316       0.00000000       0.24941469 </v>
    <v>       0.75035684       0.00000000       0.24941469 </v>
    <v>       0.24977994       0.50000000       0.24871448 </v>
    <v>       0.75022006       0.50000000       0.24871448 </v>
    <v>       0.00000000       0.24964316       0.24941469 </v>
    <v>       0.50000000       0.24977994       0.24871448 </v>
    <v>       0.00000000       0.75035684       0.24941469 </v>
    <v>       0.50000000       0.75022006       0.24871448 </v>
    <v>       0.00000000       0.00000000       0.00000000 </v>
   </varray>
  </structure>
  <varray name="forces" >
   <v>      -0.00000288      -0.00000288      -0.00000870 </v>
   <v>       0.00000288      -0.00000288      -0.00000870 </v>
   <v>      -0.00000288       0.00000288      -0.00000870 </v>
   <v>       0.00000288       0.00000288      -0.00000870 </v>
   <v>      -0.00000000       0.00000000      -0.00000110 </v>
   <v>       0.00000000       0.00000000      -0.00000486 </v>
   <v>      -0.00000000       0.00000000      -0.00000486 </v>
   <v>      -0.00000000       0.00000000      -0.00001309 </v>
   <v>      -0.00000000       0.00000000       0.00000110 </v>
   <v>      -0.00000000       0.00000000       0.00000486 </v>
   <v>       0.00000000       0.00000000       0.00000486 </v>
   <v>       0.00000000       0.00000000       0.00001309 </v>
   <v>      -0.00000288      -0.00000288       0.00000870 </v>
   <v>       0.00000288      -0.00000288       0.00000870 </v>
   <v>      -0.00000288       0.00000288       0.00000870 </v>
   <v>       0.00000288       0.00000288       0.00000870 </v>
   <v>       0.00000000       0.00000000      -0.00000000 </v>
   <v>       0.00000000       0.00000000      -0.00000000 </v>
   <v>       0.00000000       0.00000000       0.00000000 </v>
   <v>      -0.00000287      -0.00000287       0.00000000 </v>
   <v>       0.00000287      -0.00000287      -0.00000000 </v>
   <v>      -0.00000287       0.00000287       0.00000000 </v>
   <v>       0.00000287       0.00000287      -0.00000000 </v>
   <v>       0.00000000       0.00000065       0.00000403 </v>
   <v>       0.00000000       0.00000122       0.00000258 </v>
   <v>       0.00000000      -0.00000065       0.00000403 </v>
   <v>      -0.00000000      -0.00000122       0.00000258 </v>
   <v>       0.00000065       0.00000000       0.00000403 </v>
   <v>      -0.00000065       0.00000000       0.00000403 </v>
   <v>       0.00000122       0.00000000       0.00000258 </v>
   <v>      -0.00000122       0.00000000       0.00000258 </v>
   <v>       0.00000065       0.00000000      -0.00000403 </v>
   <v>      -0.00000065       0.00000000      -0.00000403 </v>
   <v>       0.00000122       0.00000000      -0.00000258 </v>
   <v>      -0.00000122       0.00000000      -0.00000258 </v>
   <v>      -0.00000000       0.00000065      -0.00000403 </v>
   <v>      -0.00000000       0.00000122      -0.00000258 </v>
   <v>      -0.00000000      -0.00000065      -0.00000403 </v>
   <v>      -0.00000000      -0.00000122      -0.00000258 </v>
   <v>      -0.00000000       0.00000000      -0.00000000 </v>
  </varray>
  <varray name="stress" >
   <v>     -34.60468693       0.00000000       0.00000000 </v>
   <v>       0.00000000     -34.60468693       0.00000000 </v>
   <v>       0.00000000       0.00000000     -25.89674305 </v>
  </varray>
  <energy>
   <i name="e_fr_energy">   -208.52979884 </i>
   <i name="e_wo_entrp">   -208.52979137 </i>
   <i name="e_0_energy">   -208.52979510 </i>
  </energy>
  <time name="totalsc">  164.27  164.32</time>
 </calculation>
 <calculation>
  <scstep>
   <time name="dav">   23.86   23.86</time>
   <time name="total">   25.94   25.94</time>
   <energy>
    <i name="alphaZ">   1270.21168223 </i>
    <i name="ewald"> -28802.92390089 </i>
    <i name="hartreedc"> -11954.57219161 </i>
    <i name="XCdc">   1247.32607856 </i>
    <i name="pawpsdc">  35928.29080823 </i>
    <i name="pawaedc"> -35321.07103467 </i>
    <i name="eentropy">     -0.00000748 </i>
    <i name="bandstr">  -2917.44307911 </i>
    <i name="atom">  40341.65184589 </i>
    <i name="e_fr_energy">   -208.52979884 </i>
    <i name="e_wo_entrp">   -208.52979136 </i>
    <i name="e_0_energy">   -208.52979510 </i>
   </energy>
  </scstep>
  <scstep>
   <time name="dav">   23.67   23.69</time>
   <time name="total">   25.74   25.77</time>
   <energy>
    <i name="e_fr_energy">   -208.52979884 </i>
    <i name="e_wo_entrp">   -208.52979137 </i>
    <i name="e_0_energy">   -208.52979510 </i>
   </energy>
  </scstep>
  <scstep>
   <time name="dav">   23.61   23.61</time>
   <time name="total">   25.68   25.68</time>
   <energy>
    <i name="e_fr_energy">   -208.52979884 </i>
    <i name="e_wo_entrp">   -208.52979137 </i>
    <i name="e_0_energy">   -208.52979510 </i>
   </energy>
  </scstep>
  <scstep>
   <time name="dav">   23.58   23.58</time>
   <time name="total">   25.65   25.65</time>
   <energy>
    <i name="e_fr_energy">   -208.52979884 </i>
    <i name="e_wo_entrp">   -208.52979137 </i>
    <i name="e_0_energy">   -208.52979510 </i>
   </energy>
  </scstep>
  <scstep>
   <time name="dav">   23.51   23.51</time>
   <time name="total">   24.33   24.33</time>
   <energy>
    <i name="alphaZ">   1270.21168223 </i>
    <i name="ewald"> -28802.92390089 </i>
    <i name="hartreedc"> -11954.57218353 </i>
    <i name="XCdc">   1247.32607861 </i>
    <i name="pawpsdc">  35928.29080619 </i>
    <i name="pawaedc"> -35321.07103394 </i>
    <i name="eentropy">     -0.00000748 </i>
    <i name="bandstr">  -2917.44308592 </i>
    <i name="atom">  40341.65184589 </i>
    <i name="e_fr_energy">   -208.52979884 </i>
    <i name="e_wo_entrp">   -208.52979137 </i>
    <i name="e_0_energy">   -208.52979510 </i>
   </energy>
  </scstep>
  <structure>
   <crystal>
    <varray name="basis" >
     <v>       7.95776143       0.00000000       0.00000000 </v>
     <v>       0.00000000       7.95776143       0.00000000 </v>
     <v>       0.00000000       0.00000000      12.55829233 </v>
    </varray>
    <i name="volume">    795.26600648 </i>
    <varray name="rec_basis" >
     <v>       0.12566348       0.00000000       0.00000000 </v>
     <v>       0.00000000       0.12566348       0.00000000 </v>
     <v>       0.00000000       0.00000000       0.07962866 </v>
    </varray>
   </crystal>
   <varray name="positions" >
    <v>       0.24898535       0.24898535       0.85207613 </v>
    <v>       0.75101465       0.24898535       0.85207613 </v>
    <v>       0.24898535       0.75101465       0.85207613 </v>
    <v>       0.75101465       0.75101465       0.85207613 </v>
    <v>       0.00000000       0.00000000       0.64888455 </v>
    <v>       0.50000000       0.00000000       0.64972298 </v>
    <v>       0.00000000       0.50000000       0.64972298 </v>
    <v>       0.50000000       0.50000000       0.65067434 </v>
    <v>       0.00000000       0.00000000       0.35111545 </v>
    <v>       0.50000000       0.00000000       0.35027702 </v>
    <v>       0.00000000       0.50000000       0.35027702 </v>
    <v>       0.50000000       0.50000000       0.34932566 </v>
    <v>       0.24898535       0.24898535       0.14792387 </v>
    <v>       0.75101465       0.24898535       0.14792387 </v>
    <v>       0.24898535       0.75101465       0.14792387 </v>
    <v>       0.75101465       0.75101465       0.14792387 </v>
    <v>       0.50000000       0.00000000       0.00000000 </v>
    <v>       0.00000000       0.50000000       0.00000000 </v>
    <v>       0.50000000       0.50000000       0.00000000 </v>
    <v>       0.24979030       0.24979030       0.50000000 </v>
    <v>       0.75020970       0.24979030       0.50000000 </v>
    <v>       0.24979030       0.75020970       0.50000000 </v>
    <v>       0.75020970       0.75020970       0.50000000 </v>
    <v>       0.00000000       0.24964315       0.75058531 </v>
    <v>       0.50000000       0.24977993       0.75128553 </v>
    <v>       0.00000000       0.75035685       0.75058531 </v>
    <v>       0.50000000       0.75022007       0.75128553 </v>
    <v>       0.24964315       0.00000000       0.75058531 </v>
    <v>       0.75035685       0.00000000       0.75058531 </v>
    <v>       0.24977993       0.50000000       0.75128553 </v>
    <v>       0.75022007       0.50000000       0.75128553 </v>
    <v>       0.24964315       0.00000000       0.24941469 </v>
    <v>       0.75035685       0.00000000       0.24941469 </v>
    <v>       0.24977993       0.50000000       0.24871447 </v>
    <v>       0.75022007       0.50000000       0.24871447 </v>
    <v>       0.00000000       0.24964315       0.24941469 </v>
    <v>       0.50000000       0.24977993       0.24871447 </v>
    <v>       0.00000000       0.75035685       0.24941469 </v>
    <v>       0.50000000       0.75022007       0.24871447 </v>
    <v>       0.00000000       0.00000000       0.00000000 </v>
   </varray>
  </structure>
  <varray name="forces" >
   <v>      -0.00000031      -0.00000031       0.00001287 </v>
   <v>       0.00000031      -0.00000031       0.00001287 </v>
   <v>      -0.00000031       0.00000031       0.00001287 </v>
   <v>       0.00000031       0.00000031       0.00001287 </v>
   <v>       0.00000000      -0.00000000      -0.00000434 </v>
   <v>      -0.00000000      -0.00000000       0.00000965 </v>
   <v>       0.00000000       0.00000000       0.00000965 </v>
   <v>       0.00000000      -0.00000000       0.00003216 </v>
   <v>      -0.00000000       0.00000000       0.00000434 </v>
   <v>      -0.00000000       0.00000000      -0.00000965 </v>
   <v>       0.00000000       0.00000000      -0.00000965 </v>
   <v>      -0.00000000      -0.00000000      -0.00003216 </v>
   <v>      -0.00000031      -0.00000031      -0.00001287 </v>
   <v>       0.00000031      -0.00000031      -0.00001287 </v>
   <v>      -0.00000031       0.00000031      -0.00001287 </v>
   <v>       0.00000031       0.00000031      -0.00001287 </v>
   <v>      -0.00000000      -0.00000000      -0.00000000 </v>
   <v>      -0.00000000      -0.00000000      -0.00000000 </v>
   <v>      -0.00000000      -0.00000000      -0.00000000 </v>
   <v>      -0.00000261      -0.00000261      -0.00000000 </v>
   <v>       0.00000261      -0.00000261      -0.00000000 </v>
   <v>      -0.00000261       0.00000261      -0.00000000 </v>
   <v>       0.00000261       0.00000261      -0.00000000 </v>
   <v>       0.00000000       0.00000230       0.00000315 </v>
   <v>      -0.00000000       0.00000431      -0.00000085 </v>
   <v>       0.00000000      -0.00000230       0.00000315 </v>
   <v>       0.00000000      -0.00000431      -0.00000085 </v>
   <v>       0.00000230      -0.00000000       0.00000315 </v>
   <v>      -0.00000230      -0.00000000       0.00000315 </v>
   <v>       0.00000431       0.00000000      -0.00000085 </v>
   <v>      -0.00000431       0.00000000      -0.00000085 </v>
   <v>       0.00000230       0.00000000      -0.00000315 </v>
   <v>      -0.00000230      -0.00000000      -0.00000315 </v>
   <v>       0.00000431       0.00000000       0.00000085 </v>
   <v>      -0.00000431      -0.00000000       0.00000085 </v>
   <v>      -0.00000000       0.00000230      -0.00000315 </v>
   <v>       0.00000000       0.00000431       0.00000085 </v>
   <v>      -0.00000000      -0.00000230      -0.00000315 </v>
   <v>       0.00000000      -0.00000431       0.00000085 </v>
   <v>       0.00000000      -0.00000000      -0.00000000 </v>
  </varray>
  <varray name="stress" >
   <v>     -34.60472525       0.00000000      -0.00000000 </v>
   <v>       0.00000000     -34.60472525       0.00000000 </v>
   <v>      -0.00000000       0.00000000     -25.89678196 </v>
  </varray>
  <energy>
   <i name="e_fr_energy">   -208.52979884 </i>
   <i name="e_wo_entrp">   -208.52979137 </i>
   <i name="e_0_energy">   -208.52979510 </i>
  </energy>
  <time name="totalsc">  157.96  158.00</time>
 </calculation>
 <calculation>
  <scstep>
   <time name="dav">   23.50   23.50</time>
   <time name="total">   25.57   25.58</time>
   <energy>
    <i name="alphaZ">   1270.21168223 </i>
    <i name="ewald"> -28802.92398008 </i>
    <i name="hartreedc"> -11954.57210785 </i>
    <i name="XCdc">   1247.32607836 </i>
    <i name="pawpsdc">  35928.29080400 </i>
    <i name="pawaedc"> -35321.07103179 </i>
    <i name="eentropy">     -0.00000748 </i>
    <i name="bandstr">  -2917.44308211 </i>
    <i name="atom">  40341.65184589 </i>
    <i name="e_fr_energy">   -208.52979884 </i>
    <i name="e_wo_entrp">   -208.52979136 </i>
    <i name="e_0_energy">   -208.52979510 </i>
   </energy>
  </scstep>
  <scstep>
   <time name="dav">   23.49   23.49</time>
   <time name="total">   25.56   25.56</time>
   <energy>
    <i name="e_fr_energy">   -208.52979884 </i>
    <i name="e_wo_entrp">   -208.52979137 </i>
    <i name="e_0_energy">   -208.52979510 </i>
   </energy>
  </scstep>
  <scstep>
   <time name="dav">   23.41   23.41</time>
   <time name="total">   25.49   25.49</time>
   <energy>
    <i name="e_fr_energy">   -208.52979884 </i>
    <i name="e_wo_entrp">   -208.52979136 </i>
    <i name="e_0_energy">   -208.52979510 </i>
   </energy>
  </scstep>
  <scstep>
   <time name="dav">   23.38   23.38</time>
   <time name="total">   25.45   25.45</time>
   <energy>
    <i name="e_fr_energy">   -208.52979884 </i>
    <i name="e_wo_entrp">   -208.52979136 </i>
    <i name="e_0_energy">   -208.52979510 </i>
   </energy>
  </scstep>
  <scstep>
   <time name="dav">   23.19   23.19</time>
   <time name="total">   24.01   24.02</time>
   <energy>
    <i name="alphaZ">   1270.21168223 </i>
    <i name="ewald"> -28802.92398008 </i>
    <i name="hartreedc"> -11954.57210824 </i>
    <i name="XCdc">   1247.32607832 </i>
    <i name="pawpsdc">  35928.29077037 </i>
    <i name="pawaedc"> -35321.07099758 </i>
    <i name="eentropy">     -0.00000748 </i>
    <i name="bandstr">  -2917.44308226 </i>
    <i name="atom">  40341.65184589 </i>
    <i name="e_fr_energy">   -208.52979884 </i>
    <i name="e_wo_entrp">   -208.52979136 </i>
    <i name="e_0_energy">   -208.52979510 </i>
   </energy>
  </scstep>
  <structure>
   <crystal>
    <varray name="basis" >
     <v>       7.95776143       0.00000000       0.00000000 </v>
     <v>       0.00000000       7.95776143       0.00000000 </v>
     <v>       0.00000000       0.00000000      12.55829233 </v>
    </varray>
    <i name="volume">    795.26600648 </i>
    <varray name="rec_basis" >
     <v>       0.12566348       0.00000000       0.00000000 </v>
     <v>       0.00000000       0.12566348       0.00000000 </v>
     <v>       0.00000000       0.00000000       0.07962866 </v>
    </varray>
   </crystal>
   <varray name="positions" >
    <v>       0.24898536       0.24898536       0.85207614 </v>
    <v>       0.75101464       0.24898536       0.85207614 </v>
    <v>       0.24898536       0.75101464       0.85207614 </v>
    <v>       0.75101464       0.75101464       0.85207614 </v>
    <v>       1.00000000       0.00000000       0.64888455 </v>
    <v>       0.50000000       0.00000000       0.64972299 </v>
    <v>       0.00000000       0.50000000       0.64972299 </v>
    <v>       0.50000000       0.50000000       0.65067436 </v>
    <v>       0.00000000       0.00000000       0.35111545 </v>
    <v>       0.50000000       0.00000000       0.35027701 </v>
    <v>       0.00000000       0.50000000       0.35027701 </v>
    <v>       0.50000000       0.50000000       0.34932564 </v>
    <v>       0.24898536       0.24898536       0.14792386 </v>
    <v>       0.75101464       0.24898536       0.14792386 </v>
    <v>       0.24898536       0.75101464       0.14792386 </v>
    <v>       0.75101464       0.75101464       0.14792386 </v>
    <v>       0.50000000       0.00000000       0.00000000 </v>
    <v>       1.00000000       0.50000000       0.00000000 </v>
    <v>       0.50000000       0.50000000       0.00000000 </v>
    <v>       0.24979030       0.24979030       0.50000000 </v>
    <v>       0.75020970       0.24979030       0.50000000 </v>
    <v>       0.24979030       0.75020970       0.50000000 </v>
    <v>       0.75020970       0.75020970       0.50000000 </v>
    <v>       0.00000000       0.24964315       0.75058531 </v>
    <v>       0.50000000       0.24977994       0.75128552 </v>
    <v>       0.00000000       0.75035685       0.75058531 </v>
    <v>       0.50000000       0.75022006       0.75128552 </v>
    <v>       0.24964315       0.00000000       0.75058531 </v>
    <v>       0.75035685       0.00000000       0.75058531 </v>
    <v>       0.24977994       0.50000000       0.75128552 </v>
    <v>       0.75022006       0.50000000       0.75128552 </v>
    <v>       0.24964315       0.00000000       0.24941469 </v>
    <v>       0.75035685       0.00000000       0.24941469 </v>
    <v>       0.24977994       0.50000000       0.24871448 </v>
    <v>       0.75022006       0.50000000       0.24871448 </v>
    <v>       0.00000000       0.24964315       0.24941469 </v>
    <v>       0.50000000       0.24977994       0.24871448 </v>
    <v>       0.00000000       0.75035685       0.24941469 </v>
    <v>       0.50000000       0.75022006       0.24871448 </v>
    <v>       0.00000000       0.00000000       0.00000000 </v>
   </varray>
  </structure>
  <varray name="forces" >
   <v>      -0.00000228      -0.00000228      -0.00000523 </v>
   <v>       0.00000228      -0.00000228      -0.00000523 </v>
   <v>      -0.00000228       0.00000228      -0.00000523 </v>
   <v>       0.00000228       0.00000228      -0.00000523 </v>
   <v>       0.00000000       0.00000000      -0.00000097 </v>
   <v>      -0.00000000       0.00000000      -0.00000182 </v>
   <v>       0.00000000       0.00000000      -0.00000182 </v>
   <v>      -0.00000000       0.00000000      -0.00000807 </v>
   <v>      -0.00000000       0.00000000       0.00000097 </v>
   <v>       0.00000000       0.00000000       0.00000182 </v>
   <v>      -0.00000000       0.00000000       0.00000182 </v>
   <v>      -0.00000000       0.00000000       0.00000807 </v>
   <v>      -0.00000228      -0.00000228       0.00000523 </v>
   <v>       0.00000228      -0.00000228       0.00000523 </v>
   <v>      -0.00000228       0.00000228       0.00000523 </v>
   <v>       0.00000228       0.00000228       0.00000523 </v>
   <v>      -0.00000000       0.00000000      -0.00000000 </v>
   <v>      -0.00000000       0.00000000      -0.00000000 </v>
   <v>       0.00000000       0.00000000      -0.00000000 </v>
   <v>      -0.00000277      -0.00000277      -0.00000000 </v>
   <v>       0.00000277      -0.00000277      -0.00000000 </v>
   <v>      -0.00000277       0.00000277      -0.00000000 </v>
   <v>       0.00000277       0.00000277      -0.00000000 </v>
   <v>       0.00000000       0.00000143       0.00000384 </v>
   <v>      -0.00000000       0.00000254       0.00000129 </v>
   <v>      -0.00000000      -0.00000143       0.00000384 </v>
   <v>       0.00000000      -0.00000254       0.00000129 </v>
   <v>       0.00000143       0.00000000       0.00000384 </v>
   <v>      -0.00000143       0.00000000       0.00000384 </v>
   <v>       0.00000254       0.00000000       0.00000129 </v>
   <v>      -0.00000254       0.00000000       0.00000129 </v>
   <v>       0.00000143       0.00000000      -0.00000384 </v>
   <v>      -0.00000143       0.00000000      -0.00000384 </v>
   <v>       0.00000254       0.00000000      -0.00000129 </v>
   <v>      -0.00000254       0.00000000      -0.00000129 </v>
   <v>       0.00000000       0.00000143      -0.00000384 </v>
   <v>      -0.00000000       0.00000254      -0.00000129 </v>
   <v>      -0.00000000      -0.00000143      -0.00000384 </v>
   <v>      -0.00000000      -0.00000254      -0.00000129 </v>
   <v>       0.00000000       0.00000000      -0.00000000 </v>
  </varray>
  <varray name="stress" >
   <v>     -34.60473071       0.00000000       0.00000000 </v>
   <v>       0.00000000     -34.60473071       0.00000000 </v>
   <v>      -0.00000000       0.00000000     -25.89678459 </v>
  </varray>
  <energy>
   <i name="e_fr_energy">   -208.52979884 </i>
   <i name="e_wo_entrp">   -208.52979136 </i>
   <i name="e_0_energy">   -208.52979510 </i>
  </energy>
  <time name="totalsc">  155.24  155.25</time>
  <eigenvalues>
   <array>
    <dimension dim="1">band</dimension>
    <dimension dim="2">kpoint</dimension>
    <dimension dim="3">spin</dimension>
    <field>eigene</field>
    <field>occ</field>
    <set>
     <set comment="spin 1">
      <set comment="kpoint 1">
       <r>  -17.3026    1.0000 </r>
       <r>  -17.3015    1.0000 </r>
       <r>  -17.2989    1.0000 </r>
       <r>  -17.2989    1.0000 </r>
       <r>  -17.2890    1.0000 </r>
       <r>  -17.2890    1.0000 </r>
       <r>  -17.2511    1.0000 </r>
       <r>  -17.2496    1.0000 </r>
       <r>  -17.2474    1.0000 </r>
       <r>  -17.2474    1.0000 </r>
       <r>  -17.2431    1.0000 </r>
       <r>  -17.2412    1.0000 </r>
       <r>  -17.2403    1.0000 </r>
       <r>  -17.2403    1.0000 </r>
       <r>  -17.1795    1.0000 </r>
       <r>  -17.1663    1.0000 </r>
       <r>  -17.1663    1.0000 </r>
       <r>  -17.1604    1.0000 </r>
       <r>  -17.1588    1.0000 </r>
       <r>  -17.1588    1.0000 </r>
       <r>  -17.1564    1.0000 </r>
       <r>  -17.1545    1.0000 </r>
       <r>  -17.1533    1.0000 </r>
       <r>  -17.1490    1.0000 </r>
       <r>  -17.1490    1.0000 </r>
       <r>  -17.1477    1.0000 </r>
       <r>  -17.1465    1.0000 </r>
       <r>  -17.1463    1.0000 </r>
       <r>  -17.1451    1.0000 </r>
       <r>  -17.1433    1.0000 </r>
       <r>  -17.1433    1.0000 </r>
       <r>  -17.1424    1.0000 </r>
       <r>  -17.1412    1.0000 </r>
       <r>  -17.1404    1.0000 </r>
       <r>  -17.1389    1.0000 </r>
       <r>  -17.1389    1.0000 </r>
       <r>  -17.1387    1.0000 </r>
       <r>  -17.1365    1.0000 </r>
       <r>  -17.1365    1.0000 </r>
       <r>  -17.1357    1.0000 </r>
       <r>  -17.1343    1.0000 </r>
       <r>  -17.1310    1.0000 </r>
       <r>  -17.1299    1.0000 </r>
       <r>  -17.1190    1.0000 </r>
       <r>  -17.1150    1.0000 </r>
       <r>  -17.1145    1.0000 </r>
       <r>  -17.1097    1.0000 </r>
       <r>  -17.1097    1.0000 </r>
       <r>  -17.1080    1.0000 </r>
       <r>  -17.1074    1.0000 </r>
       <r>  -17.1074    1.0000 </r>
       <r>  -17.1054    1.0000 </r>
       <r>  -17.1034    1.0000 </r>
       <r>  -17.1034    1.0000 </r>
       <r>  -17.1001    1.0000 </r>
       <r>  -17.1001    1.0000 </r>
       <r>  -17.0992    1.0000 </r>
       <r>  -17.0967    1.0000 </r>
       <r>  -17.0967    1.0000 </r>
       <r>  -17.0962    1.0000 </r>
       <r>  -17.0934    1.0000 </r>
       <r>  -17.0931    1.0000 </r>
       <r>  -17.0931    1.0000 </r>
       <r>  -17.0930    1.0000 </r>
       <r>  -17.0925    1.0000 </r>
       <r>  -17.0919    1.0000 </r>
       <r>  -17.0919    1.0000 </r>
       <r>  -17.0895    1.0000 </r>
       <r>  -17.0895    1.0000 </r>
       <r>  -17.0893    1.0000 </r>
       <r>  -17.0890    1.0000 </r>
       <r>  -17.0874    1.0000 </r>
       <r>  -17.0874    1.0000 </r>
       <r>  -17.0871    1.0000 </r>
       <r>  -17.0863    1.0000 </r>
       <r>  -17.0853    1.0000 </r>
       <r>  -17.0849    1.0000 </r>
       <r>  -17.0840    1.0000 </r>
       <r>  -17.0819    1.0000 </r>
       <r>  -17.0813    1.0000 </r>
       <r>  -13.3563    1.0000 </r>
       <r>  -13.3439    1.0000 </r>
       <r>  -12.1604    1.0000 </r>
       <r>  -12.1603    1.0000 </r>
       <r>  -12.1603    1.0000 </r>
       <r>  -12.1581    1.0000 </r>
       <r>  -12.1541    1.0000 </r>
       <r>  -12.1538    1.0000 </r>
       <r>  -12.1538    1.0000 </r>
       <r>  -12.1516    1.0000 </r>
       <r>  -11.8726    1.0000 </r>
       <r>  -11.8726    1.0000 </r>
       <r>  -11.8688    1.0000 </r>
       <r>  -11.8688    1.0000 </r>
       <r>  -11.1721    1.0000 </r>
       <r>  -11.1720    1.0000 </r>
       <r>   -6.5808    1.0000 </r>
       <r>   -6.0696    1.0000 </r>
       <r>   -5.4157    1.0000 </r>
       <r>   -5.3814    1.0000 </r>
       <r>   -5.3814    1.0000 </r>
       <r>   -5.2414    1.0000 </r>
       <r>   -5.1605    1.0000 </r>
       <r>   -5.0920    1.0000 </r>
       <r>   -4.9925    1.0000 </r>
       <r>   -4.9009    1.0000 </r>
       <r>   -4.8772    1.0000 </r>
       <r>   -4.8704    1.0000 </r>
       <r>   -4.8112    1.0000 </r>
       <r>   -4.5696    1.0000 </r>
       <r>   -4.5696    1.0000 </r>
       <r>   -4.5620    1.0000 </r>
       <r>   -4.5539    1.0000 </r>
       <r>   -4.1326    1.0000 </r>
       <r>   -4.1285    1.0000 </r>
       <r>   -4.1151    1.0000 </r>
       <r>   -4.1151    1.0000 </r>
       <r>   -3.7905    1.0000 </r>
       <r>   -2.7849    1.0000 </r>
       <r>   -2.2086    1.0000 </r>
       <r>    0.5137    1.0000 </r>
       <r>    0.5137    1.0000 </r>
       <r>    0.5790    1.0000 </r>
       <r>    0.5790    1.0000 </r>
       <r>    0.7632    1.0000 </r>
       <r>    0.7632    1.0000 </r>
       <r>    1.1459    1.0000 </r>
       <r>    1.1459    1.0000 </r>
       <r>    1.1474    1.0000 </r>
       <r>    1.1673    1.0000 </r>
       <r>    1.1673    1.0000 </r>
       <r>    1.1919    1.0000 </r>
       <r>    1.3149    1.0000 </r>
       <r>    1.3149    1.0000 </r>
       <r>    1.3187    1.0000 </r>
       <r>    1.3189    1.0000 </r>
       <r>    1.3860    1.0000 </r>
       <r>    1.4130    1.0000 </r>
       <r>    1.8096    1.0000 </r>
       <r>    1.8105    1.0000 </r>
       <r>    1.8133    1.0000 </r>
       <r>    1.8133    1.0000 </r>
       <r>    1.8374    1.0000 </r>
       <r>    1.8386    1.0000 </r>
       <r>    1.8401    1.0000 </r>
       <r>    1.8401    1.0000 </r>
       <r>    2.1433    1.0000 </r>
       <r>    2.1448    1.0000 </r>
       <r>    2.1469    1.0000 </r>
       <r>    2.1469    1.0000 </r>
       <r>    2.1998    1.0000 </r>
       <r>    2.2270    1.0000 </r>
       <r>    2.9361    1.0000 </r>
       <r>    2.9361    1.0000 </r>
       <r>    3.0998    1.0000 </r>
       <r>    3.1100    1.0000 </r>
       <r>    3.2595    1.0000 </r>
       <r>    3.2595    1.0000 </r>
       <r>    3.2975    1.0000 </r>
       <r>    3.3018    1.0000 </r>
       <r>    3.3116    1.0000 </r>
       <r>    3.3116    1.0000 </r>
       <r>    3.3243    1.0000 </r>
       <r>    3.3243    1.0000 </r>
       <r>    3.5509    1.0000 </r>
       <r>    4.0037    1.0000 </r>
       <r>    4.0038    1.0000 </r>
       <r>    4.0068    1.0000 </r>
       <r>    4.0069    1.0000 </r>
       <r>    4.0368    1.0000 </r>
       <r>    4.1118    1.0000 </r>
       <r>    4.1118    1.0000 </r>
       <r>    4.6011    1.0000 </r>
       <r>    4.7726    1.0000 </r>
       <r>    4.7726    1.0000 </r>
       <r>    4.7731    1.0000 </r>
       <r>    4.7994    1.0000 </r>
       <r>    5.0344    1.0000 </r>
       <r>    5.0344    1.0000 </r>
       <r>    5.0664    1.0000 </r>
       <r>    5.0753    1.0000 </r>
       <r>    5.1691    1.0000 </r>
       <r>    5.3169    1.0000 </r>
       <r>    5.3197    1.0000 </r>
       <r>    5.3218    1.0000 </r>
       <r>    5.3218    1.0000 </r>
       <r>    5.3818    1.0000 </r>
       <r>    5.3818    1.0000 </r>
       <r>    5.8324    1.0000 </r>
       <r>    5.8324    1.0000 </r>
       <r>    5.9143    0.9999 </r>
       <r>    5.9160    0.9999 </r>
       <r>    6.1590    0.0007 </r>
       <r>    6.6774    0.0000 </r>
       <r>    6.6774    0.0000 </r>
       <r>    6.7055    0.0000 </r>
       <r>    8.1434    0.0000 </r>
       <r>    8.1456    0.0000 </r>
       <r>    8.1456    0.0000 </r>
       <r>    8.1760    0.0000 </r>
       <r>    8.5963    0.0000 </r>
       <r>    8.7237    0.0000 </r>
       <r>    8.7237    0.0000 </r>
       <r>    8.8171    0.0000 </r>
       <r>    8.8322    0.0000 </r>
       <r>    9.3005    0.0000 </r>
       <r>    9.3005    0.0000 </r>
       <r>    9.3035    0.0000 </r>
       <r>    9.3151    0.0000 </r>
       <r>    9.3151    0.0000 </r>
       <r>    9.3409    0.0000 </r>
       <r>    9.3409    0.0000 </r>
       <r>    9.3661    0.0000 </r>
       <r>    9.5851    0.0000 </r>
       <r>    9.5851    0.0000 </r>
       <r>    9.6279    0.0000 </r>
       <r>    9.6517    0.0000 </r>
       <r>    9.6623    0.0000 </r>
       <r>    9.9184    0.0000 </r>
       <r>    9.9311    0.0000 </r>
       <r>    9.9843    0.0000 </r>
       <r>    9.9843    0.0000 </r>
       <r>   10.1433    0.0000 </r>
       <r>   10.1433    0.0000 </r>
       <r>   10.2656    0.0000 </r>
       <r>   10.2656    0.0000 </r>
       <r>   10.2811    0.0000 </r>
       <r>   10.3304    0.0000 </r>
       <r>   10.3862    0.0000 </r>
       <r>   10.4994    0.0000 </r>
       <r>   10.5063    0.0000 </r>
       <r>   10.5511    0.0000 </r>
      </set>
      <set comment="kpoint 2">
       <r>  -17.2986    1.0000 </r>
       <r>  -17.2971    1.0000 </r>
       <r>  -17.2920    1.0000 </r>
       <r>  -17.2917    1.0000 </r>
       <r>  -17.2822    1.0000 </r>
       <r>  -17.2820    1.0000 </r>
       <r>  -17.2739    1.0000 </r>
       <r>  -17.2684    1.0000 </r>
       <r>  -17.2574    1.0000 </r>
       <r>  -17.2550    1.0000 </r>
       <r>  -17.2489    1.0000 </r>
       <r>  -17.2472    1.0000 </r>
       <r>  -17.2106    1.0000 </r>
       <r>  -17.2017    1.0000 </r>
       <r>  -17.1780    1.0000 </r>
       <r>  -17.1695    1.0000 </r>
       <r>  -17.1638    1.0000 </r>
       <r>  -17.1577    1.0000 </r>
       <r>  -17.1571    1.0000 </r>
       <r>  -17.1553    1.0000 </r>
       <r>  -17.1549    1.0000 </r>
       <r>  -17.1538    1.0000 </r>
       <r>  -17.1532    1.0000 </r>
       <r>  -17.1510    1.0000 </r>
       <r>  -17.1497    1.0000 </r>
       <r>  -17.1483    1.0000 </r>
       <r>  -17.1470    1.0000 </r>
       <r>  -17.1432    1.0000 </r>
       <r>  -17.1426    1.0000 </r>
       <r>  -17.1412    1.0000 </r>
       <r>  -17.1391    1.0000 </r>
       <r>  -17.1386    1.0000 </r>
       <r>  -17.1382    1.0000 </r>
       <r>  -17.1380    1.0000 </r>
       <r>  -17.1369    1.0000 </r>
       <r>  -17.1350    1.0000 </r>
       <r>  -17.1345    1.0000 </r>
       <r>  -17.1337    1.0000 </r>
       <r>  -17.1309    1.0000 </r>
       <r>  -17.1308    1.0000 </r>
       <r>  -17.1304    1.0000 </r>
       <r>  -17.1300    1.0000 </r>
       <r>  -17.1296    1.0000 </r>
       <r>  -17.1214    1.0000 </r>
       <r>  -17.1181    1.0000 </r>
       <r>  -17.1175    1.0000 </r>
       <r>  -17.1169    1.0000 </r>
       <r>  -17.1161    1.0000 </r>
       <r>  -17.1145    1.0000 </r>
       <r>  -17.1125    1.0000 </r>
       <r>  -17.1086    1.0000 </r>
       <r>  -17.1076    1.0000 </r>
       <r>  -17.1066    1.0000 </r>
       <r>  -17.1060    1.0000 </r>
       <r>  -17.1043    1.0000 </r>
       <r>  -17.1024    1.0000 </r>
       <r>  -17.1017    1.0000 </r>
       <r>  -17.1008    1.0000 </r>
       <r>  -17.0991    1.0000 </r>
       <r>  -17.0968    1.0000 </r>
       <r>  -17.0961    1.0000 </r>
       <r>  -17.0960    1.0000 </r>
       <r>  -17.0947    1.0000 </r>
       <r>  -17.0941    1.0000 </r>
       <r>  -17.0927    1.0000 </r>
       <r>  -17.0926    1.0000 </r>
       <r>  -17.0922    1.0000 </r>
       <r>  -17.0918    1.0000 </r>
       <r>  -17.0908    1.0000 </r>
       <r>  -17.0907    1.0000 </r>
       <r>  -17.0899    1.0000 </r>
       <r>  -17.0895    1.0000 </r>
       <r>  -17.0886    1.0000 </r>
       <r>  -17.0885    1.0000 </r>
       <r>  -17.0881    1.0000 </r>
       <r>  -17.0874    1.0000 </r>
       <r>  -17.0863    1.0000 </r>
       <r>  -17.0861    1.0000 </r>
       <r>  -17.0855    1.0000 </r>
       <r>  -17.0848    1.0000 </r>
       <r>  -13.2626    1.0000 </r>
       <r>  -13.2504    1.0000 </r>
       <r>  -12.6067    1.0000 </r>
       <r>  -12.5974    1.0000 </r>
       <r>  -12.1213    1.0000 </r>
       <r>  -12.1201    1.0000 </r>
       <r>  -12.1149    1.0000 </r>
       <r>  -12.1138    1.0000 </r>
       <r>  -11.9182    1.0000 </r>
       <r>  -11.9173    1.0000 </r>
       <r>  -11.9139    1.0000 </r>
       <r>  -11.9130    1.0000 </r>
       <r>  -11.7391    1.0000 </r>
       <r>  -11.7356    1.0000 </r>
       <r>  -11.2316    1.0000 </r>
       <r>  -11.2314    1.0000 </r>
       <r>   -6.4812    1.0000 </r>
       <r>   -5.9979    1.0000 </r>
       <r>   -5.7265    1.0000 </r>
       <r>   -5.5178    1.0000 </r>
       <r>   -5.3359    1.0000 </r>
       <r>   -5.2624    1.0000 </r>
       <r>   -5.1325    1.0000 </r>
       <r>   -5.0181    1.0000 </r>
       <r>   -4.9828    1.0000 </r>
       <r>   -4.8800    1.0000 </r>
       <r>   -4.8726    1.0000 </r>
       <r>   -4.7628    1.0000 </r>
       <r>   -4.7550    1.0000 </r>
       <r>   -4.6347    1.0000 </r>
       <r>   -4.6238    1.0000 </r>
       <r>   -4.5225    1.0000 </r>
       <r>   -4.5087    1.0000 </r>
       <r>   -4.2336    1.0000 </r>
       <r>   -4.2197    1.0000 </r>
       <r>   -3.9366    1.0000 </r>
       <r>   -3.9082    1.0000 </r>
       <r>   -3.6246    1.0000 </r>
       <r>   -2.8771    1.0000 </r>
       <r>   -2.4632    1.0000 </r>
       <r>    0.5173    1.0000 </r>
       <r>    0.5921    1.0000 </r>
       <r>    0.5922    1.0000 </r>
       <r>    0.6007    1.0000 </r>
       <r>    0.6100    1.0000 </r>
       <r>    0.6695    1.0000 </r>
       <r>    0.6970    1.0000 </r>
       <r>    0.8447    1.0000 </r>
       <r>    0.8486    1.0000 </r>
       <r>    0.9366    1.0000 </r>
       <r>    0.9455    1.0000 </r>
       <r>    0.9831    1.0000 </r>
       <r>    0.9861    1.0000 </r>
       <r>    1.0516    1.0000 </r>
       <r>    1.2990    1.0000 </r>
       <r>    1.3373    1.0000 </r>
       <r>    1.6105    1.0000 </r>
       <r>    1.6231    1.0000 </r>
       <r>    1.7587    1.0000 </r>
       <r>    1.7690    1.0000 </r>
       <r>    2.0848    1.0000 </r>
       <r>    2.0849    1.0000 </r>
       <r>    2.2256    1.0000 </r>
       <r>    2.2424    1.0000 </r>
[...]
       <r>    5.4334    1.0000 </r>
       <r>    5.4435    1.0000 </r>
       <r>    7.4031    0.0000 </r>
       <r>    7.4247    0.0000 </r>
       <r>    7.4247    0.0000 </r>
       <r>    7.4568    0.0000 </r>
       <r>    8.1196    0.0000 </r>
       <r>    8.1480    0.0000 </r>
       <r>    8.1480    0.0000 </r>
       <r>    8.1792    0.0000 </r>
       <r>    8.6661    0.0000 </r>
       <r>    8.6775    0.0000 </r>
       <r>    8.6961    0.0000 </r>
       <r>    8.6961    0.0000 </r>
       <r>    8.9630    0.0000 </r>
       <r>    8.9754    0.0000 </r>
       <r>    9.0010    0.0000 </r>
       <r>    9.0010    0.0000 </r>
       <r>    9.0461    0.0000 </r>
       <r>    9.0461    0.0000 </r>
       <r>    9.0680    0.0000 </r>
       <r>    9.0943    0.0000 </r>
       <r>    9.1458    0.0000 </r>
       <r>    9.1458    0.0000 </r>
       <r>    9.1597    0.0000 </r>
       <r>    9.1832    0.0000 </r>
       <r>    9.8828    0.0000 </r>
       <r>    9.8828    0.0000 </r>
       <r>    9.8934    0.0000 </r>
       <r>    9.9057    0.0000 </r>
       <r>    9.9711    0.0000 </r>
       <r>    9.9711    0.0000 </r>
       <r>    9.9745    0.0000 </r>
       <r>    9.9881    0.0000 </r>
       <r>   10.5662    0.0000 </r>
       <r>   10.5662    0.0000 </r>
       <r>   10.5786    0.0000 </r>
       <r>   10.6475    0.0000 </r>
       <r>   10.6491    0.0000 </r>
       <r>   10.6598    0.0000 </r>
       <r>   10.6647    0.0000 </r>
       <r>   10.6650    0.0000 </r>
      </set>
     </set>
    </set>
   </array>
  </eigenvalues>
  <separator name="orbital magnetization" >
   <v name="MAGDIPOLOUT">      0.00000000      0.00000000      0.00000000</v>
  </separator>
  <dos>
   <i name="efermi">      6.04580503 </i>
   <total>
    <array>
     <dimension dim="1">gridpoints</dimension>
     <dimension dim="2">spin</dimension>
     <field>energy</field>
     <field>total</field>
     <field>integrated</field>
     <set>
      <set comment="spin 1">
       <r>   -18.7069     0.0000     0.0000 </r>
       <r>   -18.6039     0.0000     0.0000 </r>
       <r>   -18.5009     0.0000     0.0000 </r>
       <r>   -18.3980     0.0000     0.0000 </r>
       <r>   -18.2950     0.0000     0.0000 </r>
       <r>   -18.1920     0.0000     0.0000 </r>
       <r>   -18.0890     0.0000     0.0000 </r>
       <r>   -17.9860     0.0000     0.0000 </r>
       <r>   -17.8830     0.0000     0.0000 </r>
       <r>   -17.7801     0.0000     0.0000 </r>
       <r>   -17.6771     0.0000     0.0000 </r>
       <r>   -17.5741     0.0000     0.0000 </r>
       <r>   -17.4711     0.0000     0.0000 </r>
       <r>   -17.3681     1.7231     0.1775 </r>
       <r>   -17.2651   134.7033    14.0497 </r>
       <r>   -17.1621   341.9532    49.2654 </r>
       <r>   -17.0592   975.0895   149.6840 </r>
       <r>   -16.9562   100.1425   159.9970 </r>
       <r>   -16.8532     0.0288   160.0000 </r>
       <r>   -16.7502     0.0000   160.0000 </r>
       <r>   -16.6472     0.0000   160.0000 </r>
       <r>   -16.5442     0.0000   160.0000 </r>
       <r>   -16.4413     0.0000   160.0000 </r>
       <r>   -16.3383     0.0000   160.0000 </r>
       <r>   -16.2353     0.0000   160.0000 </r>
       <r>   -16.1323     0.0000   160.0000 </r>
       <r>   -16.0293     0.0000   160.0000 </r>
       <r>   -15.9263     0.0000   160.0000 </r>
       <r>   -15.8234     0.0000   160.0000 </r>
       <r>   -15.7204     0.0000   160.0000 </r>
       <r>   -15.6174     0.0000   160.0000 </r>
       <r>   -15.5144     0.0000   160.0000 </r>
       <r>   -15.4114     0.0000   160.0000 </r>
       <r>   -15.3084     0.0000   160.0000 </r>
       <r>   -15.2055     0.0000   160.0000 </r>
       <r>   -15.1025     0.0000   160.0000 </r>
       <r>   -14.9995     0.0000   160.0000 </r>
       <r>   -14.8965     0.0000   160.0000 </r>
       <r>   -14.7935     0.0000   160.0000 </r>
       <r>   -14.6905     0.0000   160.0000 </r>
       <r>   -14.5876     0.0000   160.0000 </r>
       <r>   -14.4846     0.0000   160.0000 </r>
       <r>   -14.3816     0.0000   160.0000 </r>
       <r>   -14.2786     0.0000   160.0000 </r>
       <r>   -14.1756     0.0000   160.0000 </r>
       <r>   -14.0726     0.0000   160.0000 </r>
       <r>   -13.9696     0.0000   160.0000 </r>
       <r>   -13.8667     0.0000   160.0000 </r>
       <r>   -13.7637     0.0000   160.0000 </r>
       <r>   -13.6607     0.0000   160.0000 </r>
       <r>   -13.5577     0.0000   160.0000 </r>
       <r>   -13.4547     0.0040   160.0004 </r>
       <r>   -13.3517     1.2019   160.1242 </r>
       <r>   -13.2488     7.0099   160.8461 </r>
       <r>   -13.1458    10.8848   161.9671 </r>
       <r>   -13.0428     3.5282   162.3304 </r>
       <r>   -12.9398    12.4542   163.6130 </r>
       <r>   -12.8368    15.5180   165.2111 </r>
       <r>   -12.7338     1.3824   165.3534 </r>
       <r>   -12.6309    10.2101   166.4049 </r>
       <r>   -12.5279    20.0579   168.4706 </r>
       <r>   -12.4249     8.5381   169.3499 </r>
       <r>   -12.3219    16.2676   171.0251 </r>
       <r>   -12.2189     2.6838   171.3015 </r>
       <r>   -12.1159    24.8503   173.8607 </r>
       <r>   -12.0130    24.5397   176.3879 </r>
       <r>   -11.9100    19.9312   178.4405 </r>
       <r>   -11.8070    15.1313   179.9988 </r>
       <r>   -11.7040    44.0586   184.5361 </r>
       <r>   -11.6010    12.1024   185.7825 </r>
       <r>   -11.4980     9.2509   186.7352 </r>
       <r>   -11.3950    25.1048   189.3206 </r>
       <r>   -11.2921     8.3139   190.1768 </r>
       <r>   -11.1891    14.8751   191.7087 </r>
       <r>   -11.0861     2.8103   191.9981 </r>
       <r>   -10.9831     0.0186   192.0000 </r>
       <r>   -10.8801     0.0000   192.0000 </r>
       <r>   -10.7771     0.0000   192.0000 </r>
       <r>   -10.6742     0.0000   192.0000 </r>
       <r>   -10.5712     0.0000   192.0000 </r>
       <r>   -10.4682     0.0000   192.0000 </r>
       <r>   -10.3652     0.0000   192.0000 </r>
       <r>   -10.2622     0.0000   192.0000 </r>
       <r>   -10.1592     0.0000   192.0000 </r>
       <r>   -10.0563     0.0000   192.0000 </r>
       <r>    -9.9533     0.0000   192.0000 </r>
       <r>    -9.8503     0.0000   192.0000 </r>
       <r>    -9.7473     0.0000   192.0000 </r>
       <r>    -9.6443     0.0000   192.0000 </r>
       <r>    -9.5413     0.0000   192.0000 </r>
       <r>    -9.4384     0.0000   192.0000 </r>
       <r>    -9.3354     0.0000   192.0000 </r>
       <r>    -9.2324     0.0000   192.0000 </r>
       <r>    -9.1294     0.0000   192.0000 </r>
       <r>    -9.0264     0.0000   192.0000 </r>
       <r>    -8.9234     0.0000   192.0000 </r>
       <r>    -8.8205     0.0000   192.0000 </r>
       <r>    -8.7175     0.0000   192.0000 </r>
       <r>    -8.6145     0.0000   192.0000 </r>
       <r>    -8.5115     0.0000   192.0000 </r>
       <r>    -8.4085     0.0000   192.0000 </r>
       <r>    -8.3055     0.0000   192.0000 </r>
       <r>    -8.2025     0.0000   192.0000 </r>
       <r>    -8.0996     0.0000   192.0000 </r>
       <r>    -7.9966     0.0000   192.0000 </r>
       <r>    -7.8936     0.0000   192.0000 </r>
       <r>    -7.7906     0.0000   192.0000 </r>
       <r>    -7.6876     0.0000   192.0000 </r>
       <r>    -7.5846     0.0000   192.0000 </r>
       <r>    -7.4817     0.0000   192.0000 </r>
       <r>    -7.3787     0.0000   192.0000 </r>
       <r>    -7.2757     0.0000   192.0000 </r>
       <r>    -7.1727     0.0000   192.0000 </r>
       <r>    -7.0697     0.0000   192.0000 </r>
       <r>    -6.9667     0.0000   192.0000 </r>
       <r>    -6.8638     0.0000   192.0000 </r>
       <r>    -6.7608     0.0000   192.0000 </r>
       <r>    -6.6578     0.0059   192.0006 </r>
       <r>    -6.5548     0.3567   192.0374 </r>
       <r>    -6.4518     2.1950   192.2634 </r>
       <r>    -6.3488     4.7765   192.7553 </r>
       <r>    -6.2459     3.8935   193.1563 </r>
       <r>    -6.1429     5.5369   193.7265 </r>
       <r>    -6.0399    12.3461   194.9979 </r>
       <r>    -5.9369     7.4130   195.7614 </r>
       <r>    -5.8339     9.3368   196.7229 </r>
       <r>    -5.7309     9.6490   197.7166 </r>
       <r>    -5.6279    13.6373   199.1210 </r>
       <r>    -5.5250    12.7170   200.4307 </r>
       <r>    -5.4220    16.0311   202.0816 </r>
       <r>    -5.3190    13.5459   203.4766 </r>
       <r>    -5.2160    18.2737   205.3585 </r>
       <r>    -5.1130    14.0599   206.8065 </r>
       <r>    -5.0100     9.8844   207.8244 </r>
       <r>    -4.9071    16.5002   209.5237 </r>
       <r>    -4.8041    22.6323   211.8544 </r>
       <r>    -4.7011    36.1430   215.5766 </r>
       <r>    -4.5981    35.7640   219.2597 </r>
       <r>    -4.4951    39.0232   223.2785 </r>
       <r>    -4.3921    16.9103   225.0200 </r>
       <r>    -4.2892     8.7980   225.9260 </r>
       <r>    -4.1862    21.5656   228.1469 </r>
       <r>    -4.0832    17.8726   229.9875 </r>
       <r>    -3.9802     8.9389   230.9081 </r>
       <r>    -3.8772     9.6103   231.8978 </r>
       <r>    -3.7742     9.4999   232.8761 </r>
       <r>    -3.6713     9.5052   233.8550 </r>
       <r>    -3.5683     8.4085   234.7209 </r>
       <r>    -3.4653     0.2822   234.7500 </r>
       <r>    -3.3623     0.1779   234.7683 </r>
       <r>    -3.2593    12.9535   236.1023 </r>
       <r>    -3.1563     9.7807   237.1096 </r>
       <r>    -3.0533     6.1309   237.7410 </r>
       <r>    -2.9504     1.4885   237.8942 </r>
       <r>    -2.8474     4.2597   238.3329 </r>
       <r>    -2.7444     3.9861   238.7434 </r>
       <r>    -2.6414     5.1291   239.2716 </r>
       <r>    -2.5384     2.6054   239.5399 </r>
       <r>    -2.4354     2.8982   239.8384 </r>
       <r>    -2.3325     0.5738   239.8975 </r>
       <r>    -2.2295     0.6943   239.9690 </r>
       <r>    -2.1265     0.2969   239.9996 </r>
       <r>    -2.0235     0.0041   240.0000 </r>
       <r>    -1.9205     0.0000   240.0000 </r>
       <r>    -1.8175     0.0000   240.0000 </r>
       <r>    -1.7146     0.0000   240.0000 </r>
       <r>    -1.6116     0.0000   240.0000 </r>
       <r>    -1.5086     0.0000   240.0000 </r>
       <r>    -1.4056     0.0000   240.0000 </r>
       <r>    -1.3026     0.0000   240.0000 </r>
       <r>    -1.1996     0.0000   240.0000 </r>
       <r>    -1.0967     0.0000   240.0000 </r>
       <r>    -0.9937     0.0000   240.0000 </r>
       <r>    -0.8907     0.0000   240.0000 </r>
       <r>    -0.7877     0.0000   240.0000 </r>
       <r>    -0.6847     0.0000   240.0000 </r>
       <r>    -0.5817     0.0000   240.0000 </r>
       <r>    -0.4788     0.0000   240.0000 </r>
       <r>    -0.3758     0.0000   240.0000 </r>
       <r>    -0.2728     0.0000   240.0000 </r>
       <r>    -0.1698     0.0000   240.0000 </r>
       <r>    -0.0668     0.0000   240.0000 </r>
       <r>     0.0362     0.0378   240.0039 </r>
       <r>     0.1392     1.9712   240.2069 </r>
       <r>     0.2421     5.9053   240.8150 </r>
       <r>     0.3451    26.7209   243.5669 </r>
       <r>     0.4481    27.1469   246.3626 </r>
       <r>     0.5511    36.1831   250.0888 </r>
       <r>     0.6541    33.6967   253.5591 </r>
       <r>     0.7571    16.3529   255.2432 </r>
       <r>     0.8600    13.4977   256.6332 </r>
       <r>     0.9630    34.6987   260.2066 </r>
       <r>     1.0660    17.9788   262.0581 </r>
       <r>     1.1690    16.5801   263.7656 </r>
       <r>     1.2720    11.9014   264.9913 </r>
       <r>     1.3750    36.6794   268.7687 </r>
       <r>     1.4779    15.5655   270.3717 </r>
       <r>     1.5809     9.3113   271.3306 </r>
       <r>     1.6839    16.2717   273.0063 </r>
       <r>     1.7869    34.3944   276.5484 </r>
       <r>     1.8899    29.8956   279.6271 </r>
       <r>     1.9929    31.1900   282.8392 </r>
       <r>     2.0958    22.5805   285.1646 </r>
       <r>     2.1988    30.4662   288.3022 </r>
       <r>     2.3018    26.1536   290.9956 </r>
       <r>     2.4048    40.3534   295.1513 </r>
       <r>     2.5078    34.8799   298.7434 </r>
       <r>     2.6108    25.8481   301.4053 </r>
       <r>     2.7138    19.7410   303.4383 </r>
       <r>     2.8167    30.9392   306.6246 </r>
       <r>     2.9197    22.5733   308.9493 </r>
       <r>     3.0227    12.1619   310.2017 </r>
       <r>     3.1257    17.9139   312.0466 </r>
       <r>     3.2287    35.2745   315.6793 </r>
       <r>     3.3317    50.4067   320.8704 </r>
       <r>     3.4346    27.3873   323.6908 </r>
       <r>     3.5376    25.6807   326.3355 </r>
       <r>     3.6406    25.5018   328.9618 </r>
       <r>     3.7436    33.7797   332.4405 </r>
       <r>     3.8466    15.7781   334.0654 </r>
       <r>     3.9496    20.4810   336.1747 </r>
       <r>     4.0525    25.0665   338.7561 </r>
       <r>     4.1555    12.9898   340.0938 </r>
       <r>     4.2585    15.2358   341.6629 </r>
       <r>     4.3615    15.2165   343.2299 </r>
       <r>     4.4645    15.3293   344.8086 </r>
       <r>     4.5675    18.8522   346.7501 </r>
       <r>     4.6704    11.6393   347.9487 </r>
       <r>     4.7734    44.3086   352.5118 </r>
       <r>     4.8764    51.7828   357.8446 </r>
       <r>     4.9794    64.4698   364.4840 </r>
       <r>     5.0824    37.3401   368.3294 </r>
       <r>     5.1854    34.0121   371.8321 </r>
       <r>     5.2883    20.7043   373.9643 </r>
       <r>     5.3913    26.0551   376.6476 </r>
       <r>     5.4943    28.9818   379.6322 </r>
       <r>     5.5973    22.2141   381.9199 </r>
       <r>     5.7003     8.3520   382.7800 </r>
       <r>     5.8033     5.0057   383.2955 </r>
       <r>     5.9063     5.3175   383.8432 </r>
       <r>     6.0092     1.5132   383.9990 </r>
       <r>     6.1122     0.0474   384.0039 </r>
       <r>     6.2152     0.3444   384.0393 </r>
       <r>     6.3182     0.1586   384.0557 </r>
       <r>     6.4212     0.6525   384.1229 </r>
       <r>     6.5242     0.0210   384.1250 </r>
       <r>     6.6271     0.3474   384.1608 </r>
       <r>     6.7301     1.5173   384.3171 </r>
       <r>     6.8331     0.1584   384.3334 </r>
       <r>     6.9361     0.5224   384.3872 </r>
       <r>     7.0391     2.4067   384.6350 </r>
       <r>     7.1421     4.0447   385.0516 </r>
       <r>     7.2450     4.1224   385.4761 </r>
       <r>     7.3480     6.2171   386.1164 </r>
       <r>     7.4510     6.2686   386.7619 </r>
       <r>     7.5540     9.6809   387.7589 </r>
       <r>     7.6570     9.5225   388.7396 </r>
       <r>     7.7600    11.0607   389.8787 </r>
       <r>     7.8629     7.6064   390.6620 </r>
       <r>     7.9659     8.1630   391.5027 </r>
       <r>     8.0689    10.0618   392.5389 </r>
       <r>     8.1719    31.8549   395.8194 </r>
       <r>     8.2749    28.1593   398.7194 </r>
       <r>     8.3779    20.9119   400.8729 </r>
       <r>     8.4809    21.2536   403.0617 </r>
       <r>     8.5838    34.3529   406.5995 </r>
       <r>     8.6868    15.4682   408.1925 </r>
       <r>     8.7898    21.9178   410.4497 </r>
       <r>     8.8928    20.9340   412.6055 </r>
       <r>     8.9958    22.6195   414.9350 </r>
       <r>     9.0988    30.1255   418.0374 </r>
       <r>     9.2017    25.2039   420.6330 </r>
       <r>     9.3047    24.6823   423.1749 </r>
       <r>     9.4077    31.3480   426.4033 </r>
       <r>     9.5107    35.5785   430.0673 </r>
       <r>     9.6137    26.8309   432.8304 </r>
       <r>     9.7167    22.0594   435.1022 </r>
       <r>     9.8196    24.5673   437.6322 </r>
       <r>     9.9226    24.7076   440.1767 </r>
       <r>    10.0256    17.0395   441.9315 </r>
       <r>    10.1286    19.6533   443.9555 </r>
       <r>    10.2316    19.3455   445.9478 </r>
       <r>    10.3346    22.2616   448.2404 </r>
       <r>    10.4375    42.4931   452.6165 </r>
       <r>    10.5405    45.7095   457.3238 </r>
       <r>    10.6435    38.5716   461.2961 </r>
       <r>    10.7465    19.6786   463.3226 </r>
       <r>    10.8495     6.4967   463.9917 </r>
       <r>    10.9525     0.0807   464.0000 </r>
       <r>    11.0554     0.0000   464.0000 </r>
       <r>    11.1584     0.0000   464.0000 </r>
       <r>    11.2614     0.0000   464.0000 </r>
       <r>    11.3644     0.0000   464.0000 </r>
       <r>    11.4674     0.0000   464.0000 </r>
       <r>    11.5704     0.0000   464.0000 </r>
       <r>    11.6734     0.0000   464.0000 </r>
       <r>    11.7763     0.0000   464.0000 </r>
       <r>    11.8793     0.0000   464.0000 </r>
       <r>    11.9823     0.0000   464.0000 </r>
       <r>    12.0853     0.0000   464.0000 </r>
       <r>    12.1883     0.0000   464.0000 </r>
      </set>
     </set>
    </array>
   </total>
  </dos>
 </calculation>
 <structure name="finalpos" >
  <crystal>
   <varray name="basis" >
    <v>       7.95776143       0.00000000       0.00000000 </v>
    <v>       0.00000000       7.95776143       0.00000000 </v>
    <v>       0.00000000       0.00000000      12.55829233 </v>
   </varray>
   <i name="volume">    795.26600648 </i>
   <varray name="rec_basis" >
    <v>       0.12566348       0.00000000       0.00000000 </v>
    <v>       0.00000000       0.12566348       0.00000000 </v>
    <v>       0.00000000       0.00000000       0.07962866 </v>
   </varray>
  </crystal>
  <varray name="positions" >
   <v>       0.24898536       0.24898536       0.85207614 </v>
   <v>       0.75101464       0.24898536       0.85207614 </v>
   <v>       0.24898536       0.75101464       0.85207614 </v>
   <v>       0.75101464       0.75101464       0.85207614 </v>
   <v>       1.00000000       0.00000000       0.64888455 </v>
   <v>       0.50000000       0.00000000       0.64972299 </v>
   <v>       0.00000000       0.50000000       0.64972299 </v>
   <v>       0.50000000       0.50000000       0.65067436 </v>
   <v>       0.00000000       0.00000000       0.35111545 </v>
   <v>       0.50000000       0.00000000       0.35027701 </v>
   <v>       0.00000000       0.50000000       0.35027701 </v>
   <v>       0.50000000       0.50000000       0.34932564 </v>
   <v>       0.24898536       0.24898536       0.14792386 </v>
   <v>       0.75101464       0.24898536       0.14792386 </v>
   <v>       0.24898536       0.75101464       0.14792386 </v>
   <v>       0.75101464       0.75101464       0.14792386 </v>
   <v>       0.50000000       0.00000000       0.00000000 </v>
   <v>       1.00000000       0.50000000       0.00000000 </v>
   <v>       0.50000000       0.50000000       0.00000000 </v>
   <v>       0.24979030       0.24979030       0.50000000 </v>
   <v>       0.75020970       0.24979030       0.50000000 </v>
   <v>       0.24979030       0.75020970       0.50000000 </v>
   <v>       0.75020970       0.75020970       0.50000000 </v>
   <v>       0.00000000       0.24964315       0.75058531 </v>
   <v>       0.50000000       0.24977994       0.75128552 </v>
   <v>       0.00000000       0.75035685       0.75058531 </v>
   <v>       0.50000000       0.75022006       0.75128552 </v>
   <v>       0.24964315       0.00000000       0.75058531 </v>
   <v>       0.75035685       0.00000000       0.75058531 </v>
   <v>       0.24977994       0.50000000       0.75128552 </v>
   <v>       0.75022006       0.50000000       0.75128552 </v>
   <v>       0.24964315       0.00000000       0.24941469 </v>
   <v>       0.75035685       0.00000000       0.24941469 </v>
   <v>       0.24977994       0.50000000       0.24871448 </v>
   <v>       0.75022006       0.50000000       0.24871448 </v>
   <v>       0.00000000       0.24964315       0.24941469 </v>
   <v>       0.50000000       0.24977994       0.24871448 </v>
   <v>       0.00000000       0.75035685       0.24941469 </v>
   <v>       0.50000000       0.75022006       0.24871448 </v>
   <v>       0.00000000       0.00000000       0.00000000 </v>
  </varray>
 </structure>
</modeling>
