unknown system                          
           1
     7.957761    0.000000    0.000000
     0.000000    7.957761    0.000000
     0.000000    0.000000   12.558292
   Bi   Se   O    S 
    16     7    16     1
Direct configuration=     1
   0.24898535  0.24898535  0.85207611
   0.75101465  0.24898535  0.85207611
   0.24898535  0.75101465  0.85207611
   0.75101465  0.75101465  0.85207611
   0.00000000  0.00000000  0.64888456
   0.50000000  0.00000000  0.64972297
   0.00000000  0.50000000  0.64972297
   0.50000000  0.50000000  0.65067431
   0.00000000  0.00000000  0.35111544
   0.50000000  0.00000000  0.35027703
   0.00000000  0.50000000  0.35027703
   0.50000000  0.50000000  0.34932569
   0.24898535  0.24898535  0.14792389
   0.75101465  0.24898535  0.14792389
   0.24898535  0.75101465  0.14792389
   0.75101465  0.75101465  0.14792389
   0.50000000  0.00000000  0.00000000
   0.00000000  0.50000000  0.00000000
   0.50000000  0.50000000  0.00000000
   0.24979031  0.24979031  0.50000000
   0.75020969  0.24979031  0.50000000
   0.24979031  0.75020969  0.50000000
   0.75020969  0.75020969  0.50000000
   0.00000000  0.24964314  0.75058531
   0.50000000  0.24977991  0.75128554
   0.00000000  0.75035686  0.75058531
   0.50000000  0.75022009  0.75128554
   0.24964314  0.00000000  0.75058531
   0.75035686  0.00000000  0.75058531
   0.24977991  0.50000000  0.75128554
   0.75022009  0.50000000  0.75128554
   0.24964314  0.00000000  0.24941469
   0.75035686  0.00000000  0.24941469
   0.24977991  0.50000000  0.24871446
   0.75022009  0.50000000  0.24871446
   0.00000000  0.24964314  0.24941469
   0.50000000  0.24977991  0.24871446
   0.00000000  0.75035686  0.24941469
   0.50000000  0.75022009  0.24871446
   0.00000000  0.00000000  0.00000000
Direct configuration=     2
   0.24898536  0.24898536  0.85207614
   0.75101464  0.24898536  0.85207614
   0.24898536  0.75101464  0.85207614
   0.75101464  0.75101464  0.85207614
   1.00000000  0.00000000  0.64888455
   0.50000000  0.00000000  0.64972299
   0.00000000  0.50000000  0.64972299
   0.50000000  0.50000000  0.65067437
   0.00000000  0.00000000  0.35111545
   0.50000000  0.00000000  0.35027701
   0.00000000  0.50000000  0.35027701
   0.50000000  0.50000000  0.34932563
   0.24898536  0.24898536  0.14792386
   0.75101464  0.24898536  0.14792386
   0.24898536  0.75101464  0.14792386
   0.75101464  0.75101464  0.14792386
   0.50000000  0.00000000  0.00000000
   1.00000000  0.50000000  0.00000000
   0.50000000  0.50000000  0.00000000
   0.24979030  0.24979030  0.50000000
   0.75020970  0.24979030  0.50000000
   0.24979030  0.75020970  0.50000000
   0.75020970  0.75020970  0.50000000
   0.00000000  0.24964316  0.75058531
   0.50000000  0.24977994  0.75128552
   0.00000000  0.75035684  0.75058531
   0.50000000  0.75022006  0.75128552
   0.24964316  0.00000000  0.75058531
   0.75035684  0.00000000  0.75058531
   0.24977994  0.50000000  0.75128552
   0.75022006  0.50000000  0.75128552
   0.24964316  0.00000000  0.24941469
   0.75035684  0.00000000  0.24941469
   0.24977994  0.50000000  0.24871448
   0.75022006  0.50000000  0.24871448
   0.00000000  0.24964316  0.24941469
   0.50000000  0.24977994  0.24871448
   0.00000000  0.75035684  0.24941469
   0.50000000  0.75022006  0.24871448
   0.00000000  0.00000000  0.00000000
Direct configuration=     3
   0.24898535  0.24898535  0.85207613
   0.75101465  0.24898535  0.85207613
   0.24898535  0.75101465  0.85207613
   0.75101465  0.75101465  0.85207613
   0.00000000  0.00000000  0.64888455
   0.50000000  0.00000000  0.64972298
   0.00000000  0.50000000  0.64972298
   0.50000000  0.50000000  0.65067434
   0.00000000  0.00000000  0.35111545
   0.50000000  0.00000000  0.35027702
   0.00000000  0.50000000  0.35027702
   0.50000000  0.50000000  0.34932566
   0.24898535  0.24898535  0.14792387
   0.75101465  0.24898535  0.14792387
   0.24898535  0.75101465  0.14792387
   0.75101465  0.75101465  0.14792387
   0.50000000  0.00000000  0.00000000
   0.00000000  0.50000000  0.00000000
   0.50000000  0.50000000  0.00000000
   0.24979030  0.24979030  0.50000000
   0.75020970  0.24979030  0.50000000
   0.24979030  0.75020970  0.50000000
   0.75020970  0.75020970  0.50000000
   0.00000000  0.24964315  0.75058531
   0.50000000  0.24977993  0.75128553
   0.00000000  0.75035685  0.75058531
   0.50000000  0.75022007  0.75128553
   0.24964315  0.00000000  0.75058531
   0.75035685  0.00000000  0.75058531
   0.24977993  0.50000000  0.75128553
   0.75022007  0.50000000  0.75128553
   0.24964315  0.00000000  0.24941469
   0.75035685  0.00000000  0.24941469
   0.24977993  0.50000000  0.24871447
   0.75022007  0.50000000  0.24871447
   0.00000000  0.24964315  0.24941469
   0.50000000  0.24977993  0.24871447
   0.00000000  0.75035685  0.24941469
   0.50000000  0.75022007  0.24871447
   0.00000000  0.00000000  0.00000000
Direct configuration=     4
   0.24898536  0.24898536  0.85207614
   0.75101464  0.24898536  0.85207614
   0.24898536  0.75101464  0.85207614
   0.75101464  0.75101464  0.85207614
   1.00000000  0.00000000  0.64888455
   0.50000000  0.00000000  0.64972299
   0.00000000  0.50000000  0.64972299
   0.50000000  0.50000000  0.65067436
   0.00000000  0.00000000  0.35111545
   0.50000000  0.00000000  0.35027701
   0.00000000  0.50000000  0.35027701
   0.50000000  0.50000000  0.34932564
   0.24898536  0.24898536  0.14792386
   0.75101464  0.24898536  0.14792386
   0.24898536  0.75101464  0.14792386
   0.75101464  0.75101464  0.14792386
   0.50000000  0.00000000  0.00000000
   1.00000000  0.50000000  0.00000000
   0.50000000  0.50000000  0.00000000
   0.24979030  0.24979030  0.50000000
   0.75020970  0.24979030  0.50000000
   0.24979030  0.75020970  0.50000000
   0.75020970  0.75020970  0.50000000
   0.00000000  0.24964315  0.75058531
   0.50000000  0.24977994  0.75128552
   0.00000000  0.75035685  0.75058531
   0.50000000  0.75022006  0.75128552
   0.24964315  0.00000000  0.75058531
   0.75035685  0.00000000  0.75058531
   0.24977994  0.50000000  0.75128552
   0.75022006  0.50000000  0.75128552
   0.24964315  0.00000000  0.24941469
   0.75035685  0.00000000  0.24941469
   0.24977994  0.50000000  0.24871448
   0.75022006  0.50000000  0.24871448
   0.00000000  0.24964315  0.24941469
   0.50000000  0.24977994  0.24871448
   0.00000000  0.75035685  0.24941469
   0.50000000  0.75022006  0.24871448
   0.00000000  0.00000000  0.00000000
