  40  40   0   0
  0.1789503E+02  0.7683356E-09  0.7683356E-09  0.1212525E-08  0.5000000E-15
  1.000000000000000E-004
  CAR 
 unknown system                          
     14.28480188    -17.46151814  301      7.20140422      1.00000000
    -17.462  0.0000E+00  0.0000E+00
    -17.356  0.0000E+00  0.0000E+00
    -17.250  0.0000E+00  0.0000E+00
    -17.144  0.0000E+00  0.0000E+00
    -17.038  0.0000E+00  0.0000E+00
    -16.932  0.0000E+00  0.0000E+00
    -16.827  0.0000E+00  0.0000E+00
    -16.721  0.0000E+00  0.0000E+00
    -16.615  0.0000E+00  0.0000E+00
    -16.509  0.0000E+00  0.0000E+00
    -16.403  0.0000E+00  0.0000E+00
    -16.297  0.6360E-16  0.6731E-17
    -16.192  0.4856E-07  0.5138E-08
    -16.086  0.8973E-02  0.9495E-03
    -15.980  0.1094E+01  0.1167E+00
    -15.874  0.1495E+01  0.2749E+00
    -15.768  0.5588E+01  0.8662E+00
    -15.663  0.6753E+01  0.1581E+01
    -15.557  0.1814E+00  0.1600E+01
    -15.451  0.5213E-05  0.1600E+01
    -15.345  0.3851E-13  0.1600E+01
    -15.239  0.0000E+00  0.1600E+01
    -15.133  0.0000E+00  0.1600E+01
    -15.028  0.0000E+00  0.1600E+01
    -14.922  0.0000E+00  0.1600E+01
    -14.816  0.0000E+00  0.1600E+01
    -14.710  0.0000E+00  0.1600E+01
    -14.604  0.0000E+00  0.1600E+01
    -14.499  0.0000E+00  0.1600E+01
    -14.393  0.0000E+00  0.1600E+01
    -14.287  0.0000E+00  0.1600E+01
    -14.181  0.0000E+00  0.1600E+01
    -14.075  0.0000E+00  0.1600E+01
    -13.969  0.0000E+00  0.1600E+01
    -13.864  0.0000E+00  0.1600E+01
    -13.758  0.0000E+00  0.1600E+01
    -13.652  0.0000E+00  0.1600E+01
    -13.546  0.0000E+00  0.1600E+01
    -13.440  0.0000E+00  0.1600E+01
    -13.334  0.0000E+00  0.1600E+01
    -13.229  0.0000E+00  0.1600E+01
    -13.123  0.0000E+00  0.1600E+01
    -13.017  0.0000E+00  0.1600E+01
    -12.911  0.0000E+00  0.1600E+01
    -12.805  0.6258E-10  0.1600E+01
    -12.700  0.4429E-04  0.1600E+01
    -12.594  0.1208E-01  0.1601E+01
    -12.488  0.5076E-01  0.1607E+01
    -12.382  0.8997E-01  0.1616E+01
    -12.276  0.5942E-01  0.1622E+01
    -12.170  0.3661E-01  0.1626E+01
    -12.065  0.1452E+00  0.1642E+01
    -11.959  0.1013E+00  0.1652E+01
    -11.853  0.5624E-02  0.1653E+01
    -11.747  0.8022E-01  0.1662E+01
    -11.641  0.1316E+00  0.1675E+01
    -11.536  0.1577E+00  0.1692E+01
    -11.430  0.4102E-01  0.1696E+01
    -11.324  0.1470E+00  0.1712E+01
    -11.218  0.7633E-02  0.1713E+01
    -11.112  0.1977E+00  0.1734E+01
    -11.006  0.2160E+00  0.1757E+01
    -10.901  0.1559E+00  0.1773E+01
    -10.795  0.1851E+00  0.1793E+01
    -10.689  0.1023E+00  0.1804E+01
    -10.583  0.4584E+00  0.1852E+01
    -10.477  0.5262E-01  0.1858E+01
    -10.372  0.6734E-01  0.1865E+01
    -10.266  0.1992E+00  0.1886E+01
    -10.160  0.1129E+00  0.1898E+01
    -10.054  0.1048E+00  0.1909E+01
     -9.948  0.9643E-01  0.1919E+01
     -9.842  0.9063E-02  0.1920E+01
     -9.737  0.8653E-05  0.1920E+01
     -9.631  0.2229E-11  0.1920E+01
     -9.525  0.0000E+00  0.1920E+01
     -9.419  0.0000E+00  0.1920E+01
     -9.313  0.0000E+00  0.1920E+01
     -9.207  0.0000E+00  0.1920E+01
     -9.102  0.0000E+00  0.1920E+01
     -8.996  0.0000E+00  0.1920E+01
     -8.890  0.0000E+00  0.1920E+01
     -8.784  0.0000E+00  0.1920E+01
     -8.678  0.0000E+00  0.1920E+01
     -8.573  0.0000E+00  0.1920E+01
     -8.467  0.0000E+00  0.1920E+01
     -8.361  0.0000E+00  0.1920E+01
     -8.255  0.0000E+00  0.1920E+01
     -8.149  0.0000E+00  0.1920E+01
     -8.043  0.0000E+00  0.1920E+01
     -7.938  0.0000E+00  0.1920E+01
     -7.832  0.0000E+00  0.1920E+01
     -7.726  0.0000E+00  0.1920E+01
     -7.620  0.0000E+00  0.1920E+01
     -7.514  0.0000E+00  0.1920E+01
     -7.409  0.0000E+00  0.1920E+01
     -7.303  0.0000E+00  0.1920E+01
     -7.197  0.0000E+00  0.1920E+01
     -7.091  0.0000E+00  0.1920E+01
     -6.985  0.0000E+00  0.1920E+01
     -6.879  0.0000E+00  0.1920E+01
     -6.774  0.0000E+00  0.1920E+01
     -6.668  0.0000E+00  0.1920E+01
     -6.562  0.0000E+00  0.1920E+01
     -6.456  0.0000E+00  0.1920E+01
     -6.350  0.3093E-13  0.1920E+01
     -6.244  0.3507E-06  0.1920E+01
     -6.139  0.8864E-03  0.1920E+01
     -6.033  0.5833E-02  0.1921E+01
     -5.927  0.2321E-01  0.1923E+01
     -5.821  0.4306E-01  0.1928E+01
     -5.715  0.3293E-01  0.1931E+01
     -5.610  0.2845E-01  0.1934E+01
     -5.504  0.8224E-01  0.1943E+01
     -5.398  0.9806E-01  0.1953E+01
     -5.292  0.4637E-01  0.1958E+01
     -5.186  0.7009E-01  0.1966E+01
     -5.080  0.8104E-01  0.1974E+01
     -4.975  0.9182E-01  0.1984E+01
     -4.869  0.9988E-01  0.1994E+01
     -4.763  0.8832E-01  0.2004E+01
     -4.657  0.1284E+00  0.2017E+01
     -4.551  0.1213E+00  0.2030E+01
     -4.446  0.8708E-01  0.2039E+01
     -4.340  0.1678E+00  0.2057E+01
     -4.234  0.7012E-01  0.2065E+01
     -4.128  0.7087E-01  0.2072E+01
     -4.022  0.6613E-01  0.2079E+01
     -3.916  0.1033E+00  0.2090E+01
     -3.811  0.1112E+00  0.2102E+01
     -3.705  0.1870E+00  0.2122E+01
     -3.599  0.2780E+00  0.2151E+01
     -3.493  0.4236E+00  0.2196E+01
     -3.387  0.2608E+00  0.2223E+01
     -3.281  0.9977E-01  0.2234E+01
     -3.176  0.1862E+00  0.2254E+01
     -3.070  0.9139E-01  0.2263E+01
     -2.964  0.1351E+00  0.2278E+01
     -2.858  0.1435E+00  0.2293E+01
     -2.752  0.1513E+00  0.2309E+01
     -2.647  0.1000E+00  0.2319E+01
     -2.541  0.2690E-01  0.2322E+01
     -2.435  0.6078E-01  0.2329E+01
     -2.329  0.9767E-01  0.2339E+01
     -2.223  0.5934E-01  0.2345E+01
     -2.117  0.2003E-01  0.2347E+01
     -2.012  0.9718E-03  0.2348E+01
     -1.906  0.8578E-01  0.2357E+01
     -1.800  0.1177E+00  0.2369E+01
     -1.694  0.7479E-01  0.2377E+01
     -1.588  0.6729E-02  0.2378E+01
     -1.483  0.2112E-01  0.2380E+01
     -1.377  0.4081E-01  0.2384E+01
     -1.271  0.3418E-01  0.2388E+01
     -1.165  0.4416E-01  0.2393E+01
     -1.059  0.1341E-01  0.2394E+01
     -0.953  0.3100E-01  0.2397E+01
     -0.848  0.1342E-01  0.2399E+01
     -0.742  0.2006E-02  0.2399E+01
     -0.636  0.6218E-02  0.2400E+01
     -0.530  0.3482E-02  0.2400E+01
     -0.424  0.3813E-03  0.2400E+01
     -0.319  0.3474E-07  0.2400E+01
     -0.213  0.6295E-15  0.2400E+01
     -0.107  0.0000E+00  0.2400E+01
     -0.001  0.0000E+00  0.2400E+01
      0.105  0.0000E+00  0.2400E+01
      0.211  0.0000E+00  0.2400E+01
      0.316  0.0000E+00  0.2400E+01
      0.422  0.0000E+00  0.2400E+01
      0.528  0.0000E+00  0.2400E+01
      0.634  0.4371E-18  0.2400E+01
      0.740  0.3322E-09  0.2400E+01
      0.846  0.8291E-04  0.2400E+01
      0.951  0.1047E-01  0.2401E+01
      1.057  0.3712E-01  0.2405E+01
      1.163  0.2231E+00  0.2429E+01
      1.269  0.2986E+00  0.2460E+01
      1.375  0.2242E+00  0.2484E+01
      1.480  0.1872E+00  0.2504E+01
      1.586  0.3006E+00  0.2536E+01
      1.692  0.2172E+00  0.2559E+01
      1.798  0.2173E+00  0.2582E+01
      1.904  0.2527E+00  0.2608E+01
      2.010  0.2030E+00  0.2630E+01
      2.115  0.1343E+00  0.2644E+01
      2.221  0.1390E+00  0.2659E+01
      2.327  0.1706E+00  0.2677E+01
      2.433  0.2602E+00  0.2704E+01
      2.539  0.2844E+00  0.2734E+01
      2.644  0.1544E+00  0.2751E+01
      2.750  0.2686E+00  0.2779E+01
      2.856  0.2616E+00  0.2807E+01
      2.962  0.2932E+00  0.2838E+01
      3.068  0.2707E+00  0.2866E+01
      3.174  0.2197E+00  0.2890E+01
      3.279  0.1736E+00  0.2908E+01
      3.385  0.1289E+00  0.2922E+01
      3.491  0.2998E+00  0.2953E+01
      3.597  0.3692E+00  0.2993E+01
      3.703  0.2833E+00  0.3023E+01
      3.809  0.1711E+00  0.3041E+01
      3.914  0.2520E+00  0.3067E+01
      4.020  0.1431E+00  0.3082E+01
      4.126  0.2286E+00  0.3107E+01
      4.232  0.2158E+00  0.3129E+01
      4.338  0.1751E+00  0.3148E+01
      4.443  0.2158E+00  0.3171E+01
      4.549  0.3737E+00  0.3210E+01
      4.655  0.3214E+00  0.3244E+01
      4.761  0.2098E+00  0.3267E+01
      4.867  0.3099E+00  0.3299E+01
      4.973  0.3493E+00  0.3336E+01
      5.078  0.2728E+00  0.3365E+01
      5.184  0.2741E+00  0.3394E+01
      5.290  0.3273E+00  0.3429E+01
      5.396  0.2141E+00  0.3452E+01
      5.502  0.1566E+00  0.3468E+01
      5.607  0.4690E-01  0.3473E+01
      5.713  0.3329E+00  0.3508E+01
      5.819  0.4055E+00  0.3551E+01
      5.925  0.3238E+00  0.3585E+01
      6.031  0.4275E+00  0.3631E+01
      6.137  0.3655E+00  0.3669E+01
      6.242  0.3037E+00  0.3702E+01
      6.348  0.2318E+00  0.3726E+01
      6.454  0.2151E+00  0.3749E+01
      6.560  0.9875E-01  0.3759E+01
      6.666  0.2239E+00  0.3783E+01
      6.772  0.2781E+00  0.3812E+01
      6.877  0.2286E+00  0.3837E+01
      6.983  0.3187E-01  0.3840E+01
      7.089  0.7781E-03  0.3840E+01
      7.195  0.1592E-07  0.3840E+01
      7.301  0.3902E-15  0.3840E+01
      7.406  0.2343E-07  0.3840E+01
      7.512  0.3261E-03  0.3840E+01
      7.618  0.3399E-02  0.3840E+01
      7.724  0.2170E-03  0.3840E+01
      7.830  0.3272E-02  0.3841E+01
      7.936  0.1131E-01  0.3842E+01
      8.041  0.1160E-02  0.3842E+01
      8.147  0.2519E-04  0.3842E+01
      8.253  0.4799E-02  0.3843E+01
      8.359  0.1537E-01  0.3844E+01
      8.465  0.3249E-01  0.3848E+01
      8.570  0.6170E-01  0.3854E+01
      8.676  0.2339E-01  0.3857E+01
      8.782  0.2081E-01  0.3859E+01
      8.888  0.1131E+00  0.3871E+01
      8.994  0.7455E-01  0.3879E+01
      9.100  0.9706E-01  0.3889E+01
      9.205  0.5724E-01  0.3895E+01
      9.311  0.8214E-01  0.3904E+01
      9.417  0.1142E+00  0.3916E+01
      9.523  0.7333E-01  0.3924E+01
      9.629  0.2690E+00  0.3952E+01
      9.734  0.2721E+00  0.3981E+01
      9.840  0.1988E+00  0.4002E+01
      9.946  0.1542E+00  0.4018E+01
     10.052  0.2315E+00  0.4043E+01
     10.158  0.2305E+00  0.4067E+01
     10.264  0.2445E+00  0.4093E+01
     10.369  0.1764E+00  0.4112E+01
     10.475  0.2623E+00  0.4139E+01
     10.581  0.3296E+00  0.4174E+01
     10.687  0.2357E+00  0.4199E+01
     10.793  0.2142E+00  0.4222E+01
     10.899  0.2204E+00  0.4245E+01
     11.004  0.1940E+00  0.4266E+01
     11.110  0.3181E+00  0.4299E+01
     11.216  0.2257E+00  0.4323E+01
     11.322  0.1979E+00  0.4344E+01
     11.428  0.1685E+00  0.4362E+01
     11.533  0.1602E+00  0.4379E+01
     11.639  0.1559E+00  0.4396E+01
     11.745  0.1851E+00  0.4415E+01
     11.851  0.1219E+00  0.4428E+01
     11.957  0.2874E+00  0.4458E+01
     12.063  0.3439E+00  0.4495E+01
     12.168  0.3076E+00  0.4527E+01
     12.274  0.2170E+00  0.4550E+01
     12.380  0.3322E+00  0.4585E+01
     12.486  0.2889E+00  0.4616E+01
     12.592  0.1485E+00  0.4632E+01
     12.697  0.4886E-01  0.4637E+01
     12.803  0.1789E-01  0.4639E+01
     12.909  0.1098E-01  0.4640E+01
     13.015  0.2408E-03  0.4640E+01
     13.121  0.3837E-08  0.4640E+01
     13.227  0.1224E-16  0.4640E+01
     13.332  0.0000E+00  0.4640E+01
     13.438  0.0000E+00  0.4640E+01
     13.544  0.0000E+00  0.4640E+01
     13.650  0.0000E+00  0.4640E+01
     13.756  0.0000E+00  0.4640E+01
     13.862  0.0000E+00  0.4640E+01
     13.967  0.0000E+00  0.4640E+01
     14.073  0.0000E+00  0.4640E+01
     14.179  0.0000E+00  0.4640E+01
     14.285  0.0000E+00  0.4640E+01
