       N       E                     dE             d eps       ncg     rms          rms(c)
DAV:   1     0.581038064211E+04    0.58104E+04   -0.17416E+05  5568   0.200E+03
DAV:   2     0.102134198711E+04   -0.47890E+04   -0.46501E+04  5576   0.587E+02
DAV:   3    -0.101841968712E+03   -0.11232E+04   -0.10447E+04  6192   0.267E+02
DAV:   4    -0.235441164097E+03   -0.13360E+03   -0.12975E+03  6744   0.848E+01
DAV:   5    -0.241126982470E+03   -0.56858E+01   -0.56062E+01  6576   0.170E+01    0.340E+01
DAV:   6    -0.207366644833E+03    0.33760E+02   -0.13480E+02  7752   0.483E+01    0.122E+01
DAV:   7    -0.207867365269E+03   -0.50072E+00   -0.29224E+01  6088   0.111E+01    0.808E+00
DAV:   8    -0.207980882867E+03   -0.11352E+00   -0.53981E+00  8136   0.497E+00    0.358E+00
DAV:   9    -0.207895081741E+03    0.85801E-01   -0.68097E-01  7360   0.278E+00    0.144E+00
DAV:  10    -0.207884484178E+03    0.10598E-01   -0.16042E-01  6976   0.139E+00    0.349E-01
DAV:  11    -0.207886635941E+03   -0.21518E-02   -0.21842E-02  7048   0.324E-01    0.316E-01
DAV:  12    -0.207887334309E+03   -0.69837E-03   -0.77849E-03  7552   0.217E-01    0.164E-01
DAV:  13    -0.207887226171E+03    0.10814E-03   -0.86193E-04  6496   0.980E-02    0.805E-02
DAV:  14    -0.207887191655E+03    0.34516E-04   -0.26138E-04  7040   0.357E-02    0.375E-02
DAV:  15    -0.207887174496E+03    0.17159E-04   -0.75428E-05  7680   0.197E-02    0.117E-02
DAV:  16    -0.207887173495E+03    0.10010E-05   -0.66203E-06  6784   0.763E-03    0.643E-03
DAV:  17    -0.207887172593E+03    0.90182E-06   -0.15753E-06  7784   0.401E-03    0.217E-03
DAV:  18    -0.207887172564E+03    0.28891E-07   -0.91029E-07  6160   0.217E-03    0.263E-03
DAV:  19    -0.207887172765E+03   -0.20077E-06   -0.81002E-08  6624   0.915E-04    0.264E-03
DAV:  20    -0.207887173077E+03   -0.31159E-06   -0.26568E-07  5664   0.138E-03    0.412E-04
DAV:  21    -0.207887173191E+03   -0.11452E-06   -0.51746E-08  5040   0.518E-04    0.440E-04
DAV:  22    -0.207887173124E+03    0.67331E-07   -0.40318E-09  3344   0.233E-04    0.149E-04
DAV:  23    -0.207887173087E+03    0.37076E-07   -0.39452E-09  3336   0.184E-04    0.106E-04
DAV:  24    -0.207887173094E+03   -0.68121E-08   -0.84288E-10  3320   0.123E-04
   1 F= -.20788717E+03 E0= -.20788717E+03  d E =-.207887E+03
       N       E                     dE             d eps       ncg     rms          rms(c)
DAV:   1    -0.207650811791E+03    0.23636E+00   -0.14840E+02  6768   0.222E+01    0.128E+00
DAV:   2    -0.208098644464E+03   -0.44783E+00   -0.50915E+00  7936   0.640E+00    0.838E-01
DAV:   3    -0.208095426174E+03    0.32183E-02   -0.62449E-02  6808   0.887E-01    0.522E-01
DAV:   4    -0.208091662997E+03    0.37632E-02   -0.16402E-02  7424   0.377E-01    0.203E-01
DAV:   5    -0.208091605905E+03    0.57091E-04   -0.14929E-03  7880   0.121E-01    0.981E-02
DAV:   6    -0.208091694689E+03   -0.88783E-04   -0.43557E-04  7656   0.643E-02    0.438E-02
DAV:   7    -0.208091710751E+03   -0.16062E-04   -0.74245E-05  6680   0.323E-02    0.232E-02
DAV:   8    -0.208091710444E+03    0.30687E-06   -0.33391E-05  6984   0.177E-02    0.602E-03
DAV:   9    -0.208091712648E+03   -0.22049E-05   -0.28525E-06  7176   0.549E-03    0.219E-03
DAV:  10    -0.208091713260E+03   -0.61156E-06   -0.39772E-07  6616   0.160E-03    0.775E-04
DAV:  11    -0.208091713420E+03   -0.16017E-06   -0.39365E-08  5496   0.729E-04    0.325E-04
DAV:  12    -0.208091713420E+03    0.32742E-09   -0.10338E-08  3400   0.276E-04
   2 F= -.20809171E+03 E0= -.20809171E+03  d E =-.204540E+00
       N       E                     dE             d eps       ncg     rms          rms(c)
DAV:   1    -0.208091372255E+03    0.34116E-03   -0.55374E-01  6720   0.130E+00    0.645E-02
DAV:   2    -0.208092608609E+03   -0.12364E-02   -0.14157E-02  7800   0.332E-01    0.483E-02
DAV:   3    -0.208092602405E+03    0.62031E-05   -0.23996E-04  6664   0.458E-02    0.289E-02
DAV:   4    -0.208092591226E+03    0.11180E-04   -0.62489E-05  7456   0.247E-02    0.108E-02
DAV:   5    -0.208092590398E+03    0.82739E-06   -0.44273E-06  8400   0.921E-03    0.543E-03
DAV:   6    -0.208092589814E+03    0.58390E-06   -0.16945E-06  6456   0.358E-03    0.267E-03
DAV:   7    -0.208092589270E+03    0.54422E-06   -0.37736E-07  7632   0.197E-03    0.177E-03
DAV:   8    -0.208092589132E+03    0.13820E-06   -0.14872E-07  5696   0.103E-03    0.300E-04
DAV:   9    -0.208092589160E+03   -0.28203E-07   -0.17405E-08  3712   0.386E-04    0.890E-05
DAV:  10    -0.208092589164E+03   -0.41655E-08   -0.32190E-09  3272   0.212E-04
   3 F= -.20809259E+03 E0= -.20809259E+03  d E =-.205416E+00
       N       E                     dE             d eps       ncg     rms          rms(c)
DAV:   1    -0.208092589163E+03   -0.25866E-08   -0.11559E-05  6736   0.596E-03    0.280E-04
DAV:   2    -0.208092589201E+03   -0.38537E-07   -0.28489E-07  7192   0.148E-03    0.204E-04
DAV:   3    -0.208092589205E+03   -0.32796E-08   -0.47688E-09  3224   0.224E-04    0.126E-04
DAV:   4    -0.208092589212E+03   -0.79554E-08   -0.18148E-09  3120   0.156E-04    0.382E-05
DAV:   5    -0.208092589210E+03    0.23110E-08   -0.63998E-10  3120   0.116E-04
   4 F= -.20809259E+03 E0= -.20809259E+03  d E =-.205416E+00
       N       E                     dE             d eps       ncg     rms          rms(c)
DAV:   1    -0.208092576104E+03    0.13108E-04   -0.39680E-02  6312   0.382E-01    0.205E-02
DAV:   2    -0.208092665242E+03   -0.89138E-04   -0.10667E-03  8056   0.992E-02    0.165E-02
DAV:   3    -0.208092666118E+03   -0.87646E-06   -0.40371E-05  6504   0.220E-02    0.107E-02
DAV:   4    -0.208092665094E+03    0.10240E-05   -0.77277E-06  7040   0.881E-03    0.515E-03
DAV:   5    -0.208092664576E+03    0.51874E-06   -0.70558E-07  7776   0.562E-03    0.299E-03
DAV:   6    -0.208092664579E+03   -0.29249E-08   -0.10212E-06  7160   0.334E-03    0.169E-03
DAV:   7    -0.208092664599E+03   -0.20516E-07   -0.32179E-07  7168   0.274E-03    0.128E-03
DAV:   8    -0.208092664589E+03    0.10092E-07   -0.33967E-08  4496   0.106E-03    0.814E-04
DAV:   9    -0.208092664580E+03    0.95024E-08   -0.37591E-08  4760   0.642E-04
   5 F= -.20809266E+03 E0= -.20809266E+03  d E =-.753694E-04
       N       E                     dE             d eps       ncg     rms          rms(c)
DAV:   1    -0.208092663223E+03    0.13658E-05   -0.15526E-03  6312   0.755E-02    0.403E-03
DAV:   2    -0.208092666692E+03   -0.34689E-05   -0.41722E-05  8080   0.197E-02    0.326E-03
DAV:   3    -0.208092666725E+03   -0.32933E-07   -0.16293E-06  6456   0.444E-03    0.213E-03
DAV:   4    -0.208092666690E+03    0.34653E-07   -0.30204E-07  7096   0.176E-03    0.103E-03
DAV:   5    -0.208092666670E+03    0.20379E-07   -0.21513E-08  4720   0.109E-03    0.585E-04
DAV:   6    -0.208092666673E+03   -0.25429E-08   -0.52121E-08  5888   0.661E-04
   6 F= -.20809267E+03 E0= -.20809267E+03  d E =-.774624E-04
       N       E                     dE             d eps       ncg     rms          rms(c)
DAV:   1    -0.208092669141E+03   -0.24705E-05   -0.72465E-03  5632   0.190E-01    0.138E-02
DAV:   2    -0.208092689370E+03   -0.20229E-04   -0.22185E-04  7272   0.408E-02    0.729E-03
DAV:   3    -0.208092689127E+03    0.24257E-06   -0.70357E-06  7232   0.751E-03    0.499E-03
DAV:   4    -0.208092688731E+03    0.39643E-06   -0.81547E-07  7128   0.391E-03    0.240E-03
DAV:   5    -0.208092688670E+03    0.61045E-07   -0.48275E-07  7528   0.284E-03    0.865E-04
DAV:   6    -0.208092688687E+03   -0.17357E-07   -0.27828E-07  6224   0.175E-03    0.632E-04
DAV:   7    -0.208092688685E+03    0.18781E-08   -0.14570E-08  3696   0.661E-04
   7 F= -.20809269E+03 E0= -.20809269E+03  d E =-.220129E-04
       N       E                     dE             d eps       ncg     rms          rms(c)
DAV:   1    -0.208092623913E+03    0.64774E-04   -0.30776E-02  5632   0.392E-01    0.283E-02
DAV:   2    -0.208092710154E+03   -0.86241E-04   -0.94387E-04  7248   0.837E-02    0.150E-02
DAV:   3    -0.208092709131E+03    0.10228E-05   -0.29811E-05  7192   0.155E-02    0.103E-02
DAV:   4    -0.208092707370E+03    0.17617E-05   -0.34235E-06  7392   0.811E-03    0.496E-03
DAV:   5    -0.208092707063E+03    0.30626E-06   -0.20615E-06  7672   0.599E-03    0.176E-03
DAV:   6    -0.208092707162E+03   -0.98778E-07   -0.12202E-06  6208   0.373E-03    0.128E-03
DAV:   7    -0.208092707162E+03    0.76398E-10   -0.74737E-08  5880   0.133E-03
   8 F= -.20809271E+03 E0= -.20809271E+03  d E =-.404894E-04
       N       E                     dE             d eps       ncg     rms          rms(c)
DAV:   1    -0.208092711335E+03   -0.41734E-05   -0.32321E-03  5632   0.129E-01    0.893E-03
DAV:   2    -0.208092720404E+03   -0.90689E-05   -0.97890E-05  7232   0.270E-02    0.445E-03
DAV:   3    -0.208092720328E+03    0.76733E-07   -0.26698E-06  7256   0.491E-03    0.311E-03
DAV:   4    -0.208092720162E+03    0.16522E-06   -0.30730E-07  7192   0.217E-03    0.144E-03
DAV:   5    -0.208092720138E+03    0.24344E-07   -0.17165E-07  7184   0.169E-03    0.452E-04
DAV:   6    -0.208092720150E+03   -0.11931E-07   -0.10422E-07  6008   0.110E-03    0.359E-04
DAV:   7    -0.208092720150E+03    0.15280E-09   -0.28861E-09  3304   0.354E-04
   9 F= -.20809272E+03 E0= -.20809272E+03  d E =-.129879E-04
       N       E                     dE             d eps       ncg     rms          rms(c)
DAV:   1    -0.208092661353E+03    0.58797E-04   -0.29056E-02  5616   0.386E-01    0.266E-02
DAV:   2    -0.208092742329E+03   -0.80975E-04   -0.87403E-04  7240   0.804E-02    0.133E-02
DAV:   3    -0.208092741668E+03    0.66034E-06   -0.23789E-05  7200   0.143E-02    0.925E-03
DAV:   4    -0.208092740204E+03    0.14647E-05   -0.26873E-06  7256   0.660E-03    0.423E-03
DAV:   5    -0.208092739994E+03    0.20980E-06   -0.16049E-06  7608   0.499E-03    0.134E-03
DAV:   6    -0.208092740086E+03   -0.92225E-07   -0.85073E-07  6072   0.313E-03    0.105E-03
DAV:   7    -0.208092740082E+03    0.42246E-08   -0.34893E-08  5248   0.108E-03
  10 F= -.20809274E+03 E0= -.20809274E+03  d E =-.329198E-04
       N       E                     dE             d eps       ncg     rms          rms(c)
DAV:   1    -0.208092737883E+03    0.22031E-05   -0.99754E-04  5672   0.715E-02    0.496E-03
DAV:   2    -0.208092740701E+03   -0.28179E-05   -0.30405E-05  7248   0.150E-02    0.248E-03
DAV:   3    -0.208092740680E+03    0.20649E-07   -0.82561E-07  7136   0.265E-03    0.174E-03
DAV:   4    -0.208092740629E+03    0.51625E-07   -0.89743E-08  5936   0.124E-03    0.788E-04
DAV:   5    -0.208092740625E+03    0.36580E-08   -0.61030E-08  6048   0.900E-04
  11 F= -.20809274E+03 E0= -.20809274E+03  d E =-.334629E-04
       N       E                     dE             d eps       ncg     rms          rms(c)
DAV:   1    -0.208092741275E+03   -0.64599E-06   -0.16483E-04  5760   0.281E-02    0.204E-03
DAV:   2    -0.208092741759E+03   -0.48476E-06   -0.52427E-06  7288   0.649E-03    0.977E-04
DAV:   3    -0.208092741764E+03   -0.51723E-08   -0.20758E-07  7160   0.135E-03    0.704E-04
DAV:   4    -0.208092741761E+03    0.34124E-08   -0.18586E-08  4344   0.629E-04    0.385E-04
DAV:   5    -0.208092741760E+03    0.74851E-09   -0.91050E-09  3664   0.555E-04
  12 F= -.20809274E+03 E0= -.20809274E+03  d E =-.113542E-05
       N       E                     dE             d eps       ncg     rms          rms(c)
DAV:   1    -0.208092740475E+03    0.12860E-05   -0.78555E-04  5720   0.613E-02    0.446E-03
DAV:   2    -0.208092742766E+03   -0.22910E-05   -0.24767E-05  7032   0.136E-02    0.208E-03
DAV:   3    -0.208092742805E+03   -0.38748E-07   -0.10933E-06  7208   0.294E-03    0.151E-03
DAV:   4    -0.208092742793E+03    0.11494E-07   -0.11689E-07  7272   0.127E-03    0.780E-04
DAV:   5    -0.208092742791E+03    0.26039E-08   -0.25067E-08  5088   0.103E-03
  13 F= -.20809274E+03 E0= -.20809274E+03  d E =-.216576E-05
       N       E                     dE             d eps       ncg     rms          rms(c)
DAV:   1    -0.208092742795E+03   -0.15561E-08   -0.20044E-07  5888   0.119E-03    0.160E-04
DAV:   2    -0.208092742794E+03    0.10450E-08   -0.48924E-09  3312   0.309E-04    0.800E-05
DAV:   3    -0.208092742793E+03    0.38381E-09   -0.23035E-09  3152   0.161E-04    0.391E-05
DAV:   4    -0.208092742794E+03   -0.18645E-09   -0.69661E-10  3040   0.118E-04    0.181E-05
DAV:   5    -0.208092742793E+03    0.12005E-09   -0.36938E-10  3072   0.835E-05
  14 F= -.20809274E+03 E0= -.20809274E+03  d E =-.216856E-05
       N       E                     dE             d eps       ncg     rms          rms(c)
DAV:   1    -0.208092742795E+03   -0.13679E-08   -0.93857E-06  5696   0.689E-03    0.455E-04
DAV:   2    -0.208092742823E+03   -0.27844E-07   -0.29955E-07  7352   0.155E-03    0.217E-04
DAV:   3    -0.208092742823E+03   -0.48567E-09   -0.65072E-09  3328   0.280E-04    0.135E-04
DAV:   4    -0.208092742823E+03   -0.53660E-10   -0.17268E-09  3112   0.191E-04    0.664E-05
DAV:   5    -0.208092742824E+03   -0.37289E-09   -0.11469E-09  3072   0.166E-04
  15 F= -.20809274E+03 E0= -.20809274E+03  d E =-.302443E-07
       N       E                     dE             d eps       ncg     rms          rms(c)
DAV:   1    -0.208092742809E+03    0.14516E-07   -0.89339E-06  5696   0.671E-03    0.450E-04
DAV:   2    -0.208092742836E+03   -0.27150E-07   -0.28850E-07  7488   0.152E-03    0.210E-04
DAV:   3    -0.208092742837E+03   -0.74033E-09   -0.57678E-09  3360   0.292E-04    0.129E-04
DAV:   4    -0.208092742837E+03   -0.43565E-09   -0.17630E-09  3144   0.178E-04    0.654E-05
DAV:   5    -0.208092742836E+03    0.64483E-09   -0.10316E-09  3056   0.173E-04
  16 F= -.20809274E+03 E0= -.20809274E+03  d E =-.430364E-07
       N       E                     dE             d eps       ncg     rms          rms(c)
DAV:   1    -0.208092742835E+03    0.25284E-08   -0.92408E-07  5672   0.216E-03    0.151E-04
DAV:   2    -0.208092742838E+03   -0.28995E-08   -0.26035E-08  4288   0.513E-04    0.634E-05
DAV:   3    -0.208092742838E+03   -0.25375E-09   -0.33927E-09  3056   0.299E-04    0.358E-05
DAV:   4    -0.208092742838E+03    0.20373E-09   -0.14569E-09  3000   0.161E-04    0.337E-05
DAV:   5    -0.208092742838E+03   -0.27285E-11   -0.67399E-10  3000   0.132E-04
  17 F= -.20809274E+03 E0= -.20809274E+03  d E =-.441050E-07
       N       E                     dE             d eps       ncg     rms          rms(c)
DAV:   1    -0.208092742833E+03    0.48785E-08   -0.55577E-06  5640   0.526E-03    0.389E-04
DAV:   2    -0.208092742849E+03   -0.15996E-07   -0.17842E-07  7120   0.133E-03    0.208E-04
DAV:   3    -0.208092742849E+03   -0.94587E-10   -0.73304E-09  3384   0.298E-04    0.139E-04
DAV:   4    -0.208092742845E+03    0.38981E-08   -0.26859E-09  3152   0.248E-04    0.636E-05
DAV:   5    -0.208092742844E+03    0.50386E-09   -0.14536E-09  3040   0.178E-04
  18 F= -.20809274E+03 E0= -.20809274E+03  d E =-.680757E-08
       N       E                     dE             d eps       ncg     rms          rms(c)
DAV:   1    -0.208092742844E+03    0.66939E-09   -0.30459E-08  4392   0.424E-04    0.460E-05
DAV:   2    -0.208092742845E+03   -0.12433E-08   -0.18121E-09  3024   0.165E-04    0.214E-05
DAV:   3    -0.208092742845E+03    0.37562E-09   -0.33662E-10  2992   0.989E-05    0.148E-05
DAV:   4    -0.208092742845E+03   -0.11187E-09   -0.18260E-10  2976   0.496E-05    0.105E-05
DAV:   5    -0.208092742846E+03   -0.33742E-09   -0.62185E-11  2976   0.449E-05
  19 F= -.20809274E+03 E0= -.20809274E+03  d E =-.795899E-08
       N       E                     dE             d eps       ncg     rms          rms(c)
DAV:   1    -0.208092742845E+03   -0.29831E-09   -0.90348E-09  3072   0.218E-04    0.216E-05
DAV:   2    -0.208092742845E+03    0.63665E-11   -0.64117E-10  2952   0.859E-05    0.963E-06
DAV:   3    -0.208092742846E+03   -0.10186E-09   -0.12623E-10  2952   0.545E-05    0.598E-06
DAV:   4    -0.208092742846E+03   -0.10368E-09   -0.49771E-11  2952   0.283E-05    0.538E-06
DAV:   5    -0.208092742845E+03    0.38926E-09   -0.21840E-11  2952   0.215E-05
  20 F= -.20809274E+03 E0= -.20809274E+03  d E =-.772980E-08
       N       E                     dE             d eps       ncg     rms          rms(c)
DAV:   1    -0.208092742845E+03    0.28012E-09   -0.22362E-09  2952   0.110E-04    0.109E-05
DAV:   2    -0.208092742846E+03   -0.26648E-09   -0.16716E-10  2944   0.503E-05    0.515E-06
DAV:   3    -0.208092742846E+03   -0.23920E-09   -0.34990E-11  2952   0.283E-05    0.315E-06
DAV:   4    -0.208092742846E+03    0.33288E-09   -0.13964E-11  2936   0.154E-05    0.295E-06
DAV:   5    -0.208092742846E+03   -0.23647E-09   -0.32015E-12  2952   0.110E-05
  21 F= -.20809274E+03 E0= -.20809274E+03  d E =-.824821E-08
       N       E                     dE             d eps       ncg     rms          rms(c)
DAV:   1    -0.208092742846E+03   -0.44383E-09   -0.26223E-10  2944   0.376E-05    0.404E-06
DAV:   2    -0.208092742846E+03    0.31469E-09   -0.20401E-11  2952   0.190E-05    0.195E-06
DAV:   3    -0.208092742846E+03   -0.39836E-09   -0.63698E-12  2936   0.991E-06    0.113E-06
DAV:   4    -0.208092742846E+03    0.34561E-10   -0.35219E-12  2952   0.525E-06    0.110E-06
DAV:   5    -0.208092742846E+03   -0.72760E-11   -0.23119E-12  2952   0.422E-06
  22 F= -.20809274E+03 E0= -.20809274E+03  d E =-.851196E-08
       N       E                     dE             d eps       ncg     rms          rms(c)
DAV:   1    -0.208092742847E+03   -0.53660E-09   -0.66479E-07  5624   0.180E-03    0.146E-04
DAV:   2    -0.208092742848E+03   -0.13806E-08   -0.18402E-08  3552   0.398E-04    0.491E-05
DAV:   3    -0.208092742848E+03    0.45839E-09   -0.24650E-09  2984   0.247E-04    0.346E-05
DAV:   4    -0.208092742848E+03   -0.52114E-09   -0.83535E-10  2952   0.135E-04    0.298E-05
DAV:   5    -0.208092742848E+03    0.25830E-09   -0.41364E-10  2952   0.984E-05
  23 F= -.20809274E+03 E0= -.20809274E+03  d E =-.171440E-08
       N       E                     dE             d eps       ncg     rms          rms(c)
DAV:   1    -0.208092742849E+03   -0.82309E-09   -0.27471E-07  5448   0.115E-03    0.942E-05
DAV:   2    -0.208092742850E+03   -0.84037E-09   -0.77026E-09  3016   0.305E-04    0.374E-05
DAV:   3    -0.208092742849E+03    0.93860E-09   -0.15605E-09  2952   0.227E-04    0.216E-05
DAV:   4    -0.208092742849E+03   -0.25102E-09   -0.62446E-10  2928   0.105E-04    0.235E-05
DAV:   5    -0.208092742849E+03   -0.47930E-09   -0.29630E-10  2928   0.919E-05
  24 F= -.20809274E+03 E0= -.20809274E+03  d E =-.342789E-08
       N       E                     dE             d eps       ncg     rms          rms(c)
DAV:   1    -0.208092742847E+03    0.18572E-08   -0.10911E-06  5664   0.230E-03    0.184E-04
DAV:   2    -0.208092742851E+03   -0.33797E-08   -0.31651E-08  4624   0.540E-04    0.760E-05
DAV:   3    -0.208092742850E+03    0.40018E-09   -0.34468E-09  3008   0.298E-04    0.477E-05
DAV:   4    -0.208092742850E+03   -0.29195E-09   -0.13684E-09  2920   0.167E-04    0.391E-05
DAV:   5    -0.208092742850E+03    0.33651E-10   -0.76206E-10  2896   0.140E-04
  25 F= -.20809274E+03 E0= -.20809274E+03  d E =-.432919E-08
       N       E                     dE             d eps       ncg     rms          rms(c)
DAV:   1    -0.208092742848E+03    0.21919E-08   -0.28207E-07  5464   0.119E-03    0.101E-04
DAV:   2    -0.208092742849E+03   -0.79763E-09   -0.75358E-09  3024   0.270E-04    0.327E-05
DAV:   3    -0.208092742849E+03   -0.28376E-09   -0.13370E-09  2904   0.176E-04    0.228E-05
DAV:   4    -0.208092742849E+03   -0.14188E-09   -0.37757E-10  2904   0.932E-05    0.199E-05
DAV:   5    -0.208092742849E+03    0.20736E-09   -0.19363E-10  2904   0.617E-05
  26 F= -.20809274E+03 E0= -.20809274E+03  d E =-.318687E-08
       N       E                     dE             d eps       ncg     rms          rms(c)
DAV:   1    -0.208092742849E+03    0.64574E-10   -0.12792E-07  5200   0.797E-04    0.685E-05
DAV:   2    -0.208092742849E+03    0.20100E-09   -0.36876E-09  2904   0.201E-04    0.259E-05
DAV:   3    -0.208092742849E+03   -0.27194E-09   -0.67878E-10  2896   0.153E-04    0.144E-05
DAV:   4    -0.208092742850E+03   -0.79126E-10   -0.26007E-10  2904   0.675E-05    0.151E-05
DAV:   5    -0.208092742850E+03    0.19099E-10   -0.11740E-10  2896   0.607E-05
  27 F= -.20809274E+03 E0= -.20809274E+03  d E =-.346063E-08
       N       E                     dE             d eps       ncg     rms          rms(c)
DAV:   1    -0.208092742846E+03    0.39854E-08   -0.95342E-07  5704   0.217E-03    0.146E-04
DAV:   2    -0.208092742848E+03   -0.23756E-08   -0.24249E-08  4104   0.486E-04    0.649E-05
DAV:   3    -0.208092742850E+03   -0.16353E-08   -0.30381E-09  2968   0.245E-04    0.466E-05
DAV:   4    -0.208092742850E+03   -0.78217E-10   -0.90114E-10  2928   0.149E-04    0.386E-05
DAV:   5    -0.208092742850E+03   -0.40200E-09   -0.56196E-10  2928   0.926E-05
  28 F= -.20809274E+03 E0= -.20809274E+03  d E =-.524778E-09
       N       E                     dE             d eps       ncg     rms          rms(c)
DAV:   1    -0.208092742851E+03   -0.12406E-08   -0.60801E-08  5120   0.561E-04    0.428E-05
DAV:   2    -0.208092742851E+03    0.30286E-09   -0.16450E-09  2904   0.134E-04    0.188E-05
DAV:   3    -0.208092742850E+03    0.38835E-09   -0.29618E-10  2904   0.926E-05    0.115E-05
DAV:   4    -0.208092742850E+03    0.00000E+00   -0.11010E-10  2904   0.423E-05    0.109E-05
DAV:   5    -0.208092742850E+03   -0.17826E-09   -0.48080E-11  2904   0.388E-05
  29 F= -.20809274E+03 E0= -.20809274E+03  d E =-.850378E-09
       N       E                     dE             d eps       ncg     rms          rms(c)
DAV:   1    -0.208092742849E+03    0.10114E-08   -0.19872E-08  3592   0.322E-04    0.259E-05
DAV:   2    -0.208092742849E+03    0.21373E-09   -0.11121E-09  2904   0.105E-04    0.853E-06
DAV:   3    -0.208092742850E+03   -0.92678E-09   -0.20618E-10  2904   0.575E-05    0.700E-06
DAV:   4    -0.208092742849E+03    0.41655E-09   -0.66533E-11  2904   0.338E-05    0.638E-06
DAV:   5    -0.208092742849E+03    0.21646E-09   -0.30930E-11  2904   0.231E-05
  30 F= -.20809274E+03 E0= -.20809274E+03  d E =0.259206E-09
       N       E                     dE             d eps       ncg     rms          rms(c)
DAV:   1    -0.208092742849E+03    0.26557E-09   -0.47732E-07  5568   0.155E-03    0.958E-05
DAV:   2    -0.208092742850E+03   -0.10532E-08   -0.10793E-08  2952   0.328E-04    0.368E-05
DAV:   3    -0.208092742850E+03    0.55570E-09   -0.19237E-09  2888   0.189E-04    0.249E-05
DAV:   4    -0.208092742850E+03   -0.70486E-09   -0.65275E-10  2904   0.106E-04    0.220E-05
DAV:   5    -0.208092742850E+03    0.41837E-10   -0.24882E-10  2896   0.772E-05
  31 F= -.20809274E+03 E0= -.20809274E+03  d E =-.111140E-08
       N       E                     dE             d eps       ncg     rms          rms(c)
DAV:   1    -0.208092742850E+03    0.70213E-09   -0.10432E-07  5168   0.732E-04    0.492E-05
DAV:   2    -0.208092742851E+03   -0.82400E-09   -0.24154E-09  2896   0.171E-04    0.206E-05
DAV:   3    -0.208092742850E+03    0.53205E-09   -0.52035E-10  2880   0.111E-04    0.130E-05
DAV:   4    -0.208092742850E+03   -0.22737E-09   -0.15299E-10  2880   0.610E-05    0.110E-05
DAV:   5    -0.208092742850E+03    0.57753E-09   -0.88868E-11  2880   0.402E-05
  32 F= -.20809274E+03 E0= -.20809274E+03  d E =-.392902E-09
       N       E                     dE             d eps       ncg     rms          rms(c)
DAV:   1    -0.208092742850E+03    0.48203E-09   -0.34066E-08  4408   0.420E-04    0.291E-05
DAV:   2    -0.208092742850E+03   -0.60390E-09   -0.10981E-09  2880   0.114E-04    0.121E-05
DAV:   3    -0.208092742849E+03    0.94678E-09   -0.23124E-10  2880   0.767E-05    0.715E-06
DAV:   4    -0.208092742850E+03   -0.39563E-09   -0.93644E-11  2880   0.367E-05    0.743E-06
DAV:   5    -0.208092742850E+03   -0.47385E-09   -0.34124E-11  2880   0.297E-05
  33 F= -.20809274E+03 E0= -.20809274E+03  d E =-.101500E-08
