 vasp.6.4.3 19Mar24 (build Apr 09 2025 20:43:19) complex                        
  
 executed on             LinuxIFC date 2025.04.13  04:16:14
 running   36 mpi-ranks, on    1 nodes
 distrk:  each k-point on   36 cores,    1 groups
 distr:  one band on NCORE=   9 cores,    4 groups


--------------------------------------------------------------------------------------------------------


 INCAR:
   PREC = Accurate
   IBRION = 2
   NSW = 100
   NELMIN = 5
   ISIF = 2
   ENCUT = 520
   EDIFF = 1.000000e-08
   EDIFFG = -1.000000e-5
   ISMEAR = 0
   SIGMA = 0.05
   IALGO = 38
   LREAL = .FALSE.
   ADDGRID = .TRUE.
   LWAVE = .FALSE.
   LCHARG = .FALSE.
   NCORE = 9

 POTCAR:    PAW_PBE Bi_d 06Sep2000                
 POTCAR:    PAW_PBE Se 06Sep2000                  
 POTCAR:    PAW_PBE O 08Apr2002                   
 POTCAR:    PAW_PBE S 06Sep2000                   
 POTCAR:    PAW_PBE Bi_d 06Sep2000                
   SHA256 =  572e7eac3f9482ff025db24f2820381a7a3856069fa85913dc654793f618f69a Bi_d/POTCAR           
   COPYR  = (c) Copyright 06Sep2000 Georg Kresse                                                    
   COPYR  = This file is part of the software VASP. Any use, copying, and all other rights are regul
   COPYR  = If you do not have a valid VASP license, you may not use, copy or distribute this file. 
   VRHFIN =Bi:                                                                                      
   LEXCH  = PE                                                                                      
   EATOM  =  1959.2045 eV,  143.9975 Ry                                                             
                                                                                                    
   TITEL  = PAW_PBE Bi_d 06Sep2000                                                                  
   LULTRA =        F    use ultrasoft PP ?                                                          
   IUNSCR =        1    unscreen: 0-lin 1-nonlin 2-no                                               
   RPACOR =    2.200    partial core radius                                                         
   POMASS =  208.980; ZVAL   =   15.000    mass and valenz                                          
   RCORE  =    2.500    outmost cutoff radius                                                       
   RWIGS  =    3.090; RWIGS  =    1.635    wigner-seitz radius (au A)                               
   ENMAX  =  242.839; ENMIN  =  182.129 eV                                                          
   ICORE  =        3    local potential                                                             
   LCOR   =        T    correct aug charges                                                         
   LPAW   =        T    paw PP                                                                      
   EAUG   =  442.899                                                                                
   DEXC   =    0.000                                                                                
   RMAX   =    2.551    core radius for proj-oper                                                   
   RAUG   =    1.300    factor for augmentation sphere                                              
   RDEP   =    2.650    radius for radial grids                                                     
   RDEPT  =    2.039    core radius for aug-charge                                                  
                                                                                                    
   Atomic configuration                                                                             
   16 entries                                                                                       
     n  l   j            E        occ.                                                              
     1  0  0.50    -90639.6581   2.0000                                                             
     2  0  0.50    -16282.4666   2.0000                                                             
     2  1  1.50    -13922.8286   6.0000                                                             
     3  0  0.50     -3930.4763   2.0000                                                             
     3  1  1.50     -3256.7013   6.0000                                                             
     3  2  2.50     -2581.6168  10.0000                                                             
     4  0  0.50      -902.2614   2.0000                                                             
     4  1  1.50      -681.5915   6.0000                                                             
     4  2  2.50      -429.8249  10.0000                                                             
     4  3  3.50      -152.6004  14.0000                                                             
     5  0  0.50      -157.7156   2.0000                                                             
     5  1  1.50       -95.8054   6.0000                                                             
     5  2  2.50       -27.0806  10.0000                                                             
     6  0  0.50       -14.4732   2.0000                                                             
     6  1  1.50        -4.5702   3.0000                                                             
     5  3  2.50        -2.7212   0.0000                                                             
   Description                                                                                      
     l       E           TYP  RCUT    TYP  RCUT                                                     
     2    -27.0805982     23  2.500                                                                 
     2     -1.3605826     23  2.500                                                                 
     0    -14.4732271     23  2.500                                                                 
     0      6.8029130     23  2.500                                                                 
     1     -4.5701651     23  2.500                                                                 
     1     13.6058260     23  2.500                                                                 
     3     -1.3605826      7  2.500                                                                 
  local pseudopotential read in
  partial core-charges read in
  partial kinetic energy density read in
  atomic valenz-charges read in
  non local Contribution for L=           2  read in
    real space projection operators read in
  non local Contribution for L=           2  read in
    real space projection operators read in
  non local Contribution for L=           0  read in
    real space projection operators read in
  non local Contribution for L=           0  read in
    real space projection operators read in
  non local Contribution for L=           1  read in
    real space projection operators read in
  non local Contribution for L=           1  read in
    real space projection operators read in
    PAW grid and wavefunctions read in
 
   number of l-projection  operators is LMAX  =           6
   number of lm-projection operators is LMMAX =          18
 
 POTCAR:    PAW_PBE Se 06Sep2000                  
   SHA256 =  eabb916e6b4c819dc065ce039373bc328651da483898f08fb9e49c498452bf12 Se/POTCAR             
   COPYR  = (c) Copyright 06Sep2000 Georg Kresse                                                    
   COPYR  = This file is part of the software VASP. Any use, copying, and all other rights are regul
   COPYR  = If you do not have a valid VASP license, you may not use, copy or distribute this file. 
   VRHFIN =Se: s2p4                                                                                 
   LEXCH  = PE                                                                                      
   EATOM  =   257.1286 eV,   18.8984 Ry                                                             
                                                                                                    
   TITEL  = PAW_PBE Se 06Sep2000                                                                    
   LULTRA =        F    use ultrasoft PP ?                                                          
   IUNSCR =        1    unscreen: 0-lin 1-nonlin 2-no                                               
   RPACOR =    1.900    partial core radius                                                         
   POMASS =   78.960; ZVAL   =    6.000    mass and valenz                                          
   RCORE  =    2.100    outmost cutoff radius                                                       
   RWIGS  =    2.200; RWIGS  =    1.164    wigner-seitz radius (au A)                               
   ENMAX  =  211.555; ENMIN  =  158.666 eV                                                          
   ICORE  =        3    local potential                                                             
   LCOR   =        T    correct aug charges                                                         
   LPAW   =        T    paw PP                                                                      
   EAUG   =  446.842                                                                                
   DEXC   =    0.000                                                                                
   RMAX   =    2.147    core radius for proj-oper                                                   
   RAUG   =    1.300    factor for augmentation sphere                                              
   RDEP   =    2.177    radius for radial grids                                                     
   RDEPT  =    1.928    core radius for aug-charge                                                  
                                                                                                    
   Atomic configuration                                                                             
   10 entries                                                                                       
     n  l   j            E        occ.                                                              
     1  0  0.50    -12503.4787   2.0000                                                             
     2  0  0.50     -1606.9547   2.0000                                                             
     2  1  1.50     -1413.3140   6.0000                                                             
     3  0  0.50      -213.4885   2.0000                                                             
     3  1  1.50      -152.9538   6.0000                                                             
     3  2  2.50       -53.1221  10.0000                                                             
     4  0  0.50       -17.2865   2.0000                                                             
     4  1  0.50        -6.5110   4.0000                                                             
     4  2  2.50        -6.8029   0.0000                                                             
     4  3  2.50        -6.8029   0.0000                                                             
   Description                                                                                      
     l       E           TYP  RCUT    TYP  RCUT                                                     
     0    -17.2865377     23  2.100                                                                 
     0    -15.3094411     23  2.100                                                                 
     1     -6.5110275     23  2.100                                                                 
     1     -0.0695192     23  2.100                                                                 
     2     -6.8029130     23  2.100                                                                 
     3     -1.3605826      7  2.100                                                                 
  local pseudopotential read in
  partial core-charges read in
  partial kinetic energy density read in
  atomic valenz-charges read in
  non local Contribution for L=           0  read in
    real space projection operators read in
  non local Contribution for L=           0  read in
    real space projection operators read in
  non local Contribution for L=           1  read in
    real space projection operators read in
  non local Contribution for L=           1  read in
    real space projection operators read in
  non local Contribution for L=           2  read in
    real space projection operators read in
    PAW grid and wavefunctions read in
 
   number of l-projection  operators is LMAX  =           5
   number of lm-projection operators is LMMAX =          13
 
 POTCAR:    PAW_PBE O 08Apr2002                   
   SHA256 =  818f92134a0a090dccd8ba1447fa70422a3b330e708bb4f08108d8ae51209ddf O/POTCAR              
   COPYR  = (c) Copyright 08Apr2002 Georg Kresse                                                    
   COPYR  = This file is part of the software VASP. Any use, copying, and all other rights are regul
   COPYR  = If you do not have a valid VASP license, you may not use, copy or distribute this file. 
   VRHFIN =O: s2p4                                                                                  
   LEXCH  = PE                                                                                      
   EATOM  =   432.3788 eV,   31.7789 Ry                                                             
                                                                                                    
   TITEL  = PAW_PBE O 08Apr2002                                                                     
   LULTRA =        F    use ultrasoft PP ?                                                          
   IUNSCR =        1    unscreen: 0-lin 1-nonlin 2-no                                               
   RPACOR =    1.200    partial core radius                                                         
   POMASS =   16.000; ZVAL   =    6.000    mass and valenz                                          
   RCORE  =    1.520    outmost cutoff radius                                                       
   RWIGS  =    1.550; RWIGS  =    0.820    wigner-seitz radius (au A)                               
   ENMAX  =  400.000; ENMIN  =  300.000 eV                                                          
   ICORE  =        2    local potential                                                             
   LCOR   =        T    correct aug charges                                                         
   LPAW   =        T    paw PP                                                                      
   EAUG   =  605.392                                                                                
   DEXC   =    0.000                                                                                
   RMAX   =    1.553    core radius for proj-oper                                                   
   RAUG   =    1.300    factor for augmentation sphere                                              
   RDEP   =    1.550    radius for radial grids                                                     
   RDEPT  =    1.329    core radius for aug-charge                                                  
                                                                                                    
   Atomic configuration                                                                             
    4 entries                                                                                       
     n  l   j            E        occ.                                                              
     1  0  0.50      -514.6923   2.0000                                                             
     2  0  0.50       -23.9615   2.0000                                                             
     2  1  0.50        -9.0305   4.0000                                                             
     3  2  1.50        -9.5241   0.0000                                                             
   Description                                                                                      
     l       E           TYP  RCUT    TYP  RCUT                                                     
     0    -23.9615318     23  1.200                                                                 
     0     -9.5240782     23  1.200                                                                 
     1     -9.0304911     23  1.520                                                                 
     1      8.1634956     23  1.520                                                                 
     2     -9.5240782      7  1.500                                                                 
  local pseudopotential read in
  partial core-charges read in
  partial kinetic energy density read in
  kinetic energy density of atom read in
  atomic valenz-charges read in
  non local Contribution for L=           0  read in
    real space projection operators read in
  non local Contribution for L=           0  read in
    real space projection operators read in
  non local Contribution for L=           1  read in
    real space projection operators read in
  non local Contribution for L=           1  read in
    real space projection operators read in
    PAW grid and wavefunctions read in
 
   number of l-projection  operators is LMAX  =           4
   number of lm-projection operators is LMMAX =           8
 
 POTCAR:    PAW_PBE S 06Sep2000                   
   SHA256 =  0fc7481fb0695f01bdc6462160264c5c84044ae9ec85a907d398b887a2bc3132 S/POTCAR              
   COPYR  = (c) Copyright 06Sep2000 Georg Kresse                                                    
   COPYR  = This file is part of the software VASP. Any use, copying, and all other rights are regul
   COPYR  = If you do not have a valid VASP license, you may not use, copy or distribute this file. 
   VRHFIN =S : s2p4                                                                                 
   LEXCH  = PE                                                                                      
   EATOM  =   276.8230 eV,   20.3459 Ry                                                             
                                                                                                    
   TITEL  = PAW_PBE S 06Sep2000                                                                     
   LULTRA =        F    use ultrasoft PP ?                                                          
   IUNSCR =        1    unscreen: 0-lin 1-nonlin 2-no                                               
   RPACOR =    1.500    partial core radius                                                         
   POMASS =   32.066; ZVAL   =    6.000    mass and valenz                                          
   RCORE  =    1.900    outmost cutoff radius                                                       
   RWIGS  =    2.200; RWIGS  =    1.164    wigner-seitz radius (au A)                               
   ENMAX  =  258.689; ENMIN  =  194.016 eV                                                          
   ICORE  =        2    local potential                                                             
   LCOR   =        T    correct aug charges                                                         
   LPAW   =        T    paw PP                                                                      
   EAUG   =  335.092                                                                                
   DEXC   =    0.000                                                                                
   RMAX   =    1.942    core radius for proj-oper                                                   
   RAUG   =    1.300    factor for augmentation sphere                                              
   RDEP   =    1.954    radius for radial grids                                                     
   RDEPT  =    1.744    core radius for aug-charge                                                  
                                                                                                    
   Atomic configuration                                                                             
    6 entries                                                                                       
     n  l   j            E        occ.                                                              
     1  0  0.50     -2405.8406   2.0000                                                             
     2  0  0.50      -211.7007   2.0000                                                             
     2  1  1.50      -156.4958   6.0000                                                             
     3  0  0.50       -17.2562   2.0000                                                             
     3  1  0.50        -7.0085   4.0000                                                             
     3  2  1.50        -6.8029   0.0000                                                             
   Description                                                                                      
     l       E           TYP  RCUT    TYP  RCUT                                                     
     0    -17.2561641     23  1.900                                                                 
     0    -15.8743224     23  1.900                                                                 
     1     -7.0085400     23  1.900                                                                 
     1     -2.7779785     23  1.900                                                                 
     2     -6.8029130     23  1.900                                                                 
  local pseudopotential read in
  partial core-charges read in
  partial kinetic energy density read in
  atomic valenz-charges read in
  non local Contribution for L=           0  read in
    real space projection operators read in
  non local Contribution for L=           0  read in
    real space projection operators read in
  non local Contribution for L=           1  read in
    real space projection operators read in
  non local Contribution for L=           1  read in
    real space projection operators read in
    PAW grid and wavefunctions read in
 
   number of l-projection  operators is LMAX  =           4
   number of lm-projection operators is LMMAX =           8
 
 -----------------------------------------------------------------------------
|                                                                             |
|               ----> ADVICE to this user running VASP <----                  |
|                                                                             |
|     You have a (more or less) 'large supercell' and for larger cells it     |
|     might be more efficient to use real-space projection operators.         |
|     Therefore, try LREAL= Auto in the INCAR file.                           |
|     Mind: For very accurate calculation, you might also keep the            |
|     reciprocal projection scheme (i.e. LREAL=.FALSE.).                      |
|                                                                             |
 -----------------------------------------------------------------------------

  PAW_PBE Bi_d 06Sep2000                :
 energy of atom  1       EATOM=-1959.2045
 kinetic energy error for atom=    0.0040 (will be added to EATOM!!)
  PAW_PBE Se 06Sep2000                  :
 energy of atom  2       EATOM= -257.1286
 kinetic energy error for atom=    0.0007 (will be added to EATOM!!)
  PAW_PBE O 08Apr2002                   :
 energy of atom  3       EATOM= -432.3788
 kinetic energy error for atom=    0.0208 (will be added to EATOM!!)
  PAW_PBE S 06Sep2000                   :
 energy of atom  4       EATOM= -276.8230
 kinetic energy error for atom=    0.0016 (will be added to EATOM!!)
 
 
 POSCAR: generated by phonopy
  positions in direct lattice
  velocities in cartesian coordinates


 exchange-correlation table for PE
   RHO(1)=    0.500       N(1)  =     2000
   RHO(2)=  100.500       N(2)  =     4000
 


--------------------------------------------------------------------------------------------------------


 ion  position               nearest neighbor table
   1  0.249  0.249  0.854-  24 2.29  28 2.29  25 2.30  30 2.30  40 3.23  18 3.24  17 3.24  19 3.25
                            13 3.53   5 3.69   7 3.70   6 3.70   8 3.70   3 3.82   2 3.82   3 3.86
   2  0.751  0.249  0.854-  24 2.29  29 2.29  25 2.30  31 2.30  40 3.23  18 3.24  17 3.24  19 3.25
                            14 3.53   5 3.69   7 3.70   6 3.70   8 3.70   4 3.82   1 3.82   4 3.86
   3  0.249  0.751  0.854-  26 2.29  28 2.29  27 2.30  30 2.30  40 3.23  18 3.24  17 3.24  19 3.25
                            15 3.53   5 3.69   7 3.70   6 3.70   8 3.70   4 3.82   1 3.82   4 3.86
   4  0.751  0.751  0.854-  26 2.29  29 2.29  27 2.30  31 2.30  40 3.23  18 3.24  17 3.24  19 3.25
                            16 3.53   5 3.69   7 3.70   6 3.70   8 3.70   3 3.82   2 3.82   2 3.86
   5  0.000  0.000  0.647-  24 2.29  26 2.29  28 2.29  29 2.29  20 3.25  21 3.25  22 3.25  23 3.25
                             9 3.56   2 3.69   3 3.69   4 3.69   1 3.69   7 3.84   6 3.84   7 3.84
   6  0.500  0.000  0.648-  28 2.29  29 2.29  25 2.29  27 2.29  20 3.25  21 3.25  22 3.25  23 3.25
                            10 3.58   2 3.70   3 3.70   4 3.70   1 3.70   5 3.84   5 3.84   8 3.84
   7  0.000  0.500  0.648-  24 2.29  26 2.29  30 2.29  31 2.29  20 3.25  21 3.25  22 3.25  23 3.25
                            11 3.58   2 3.70   3 3.70   4 3.70   1 3.70   5 3.84   5 3.84   8 3.84
   8  0.500  0.500  0.648-  25 2.29  27 2.29  30 2.29  31 2.29  20 3.26  21 3.26  22 3.26  23 3.26
                            12 3.60   2 3.70   3 3.70   4 3.70   1 3.70   7 3.84   6 3.84   6 3.84
   9  0.000  0.000  0.353-  32 2.29  33 2.29  36 2.29  38 2.29  20 3.25  21 3.25  22 3.25  23 3.25
                             5 3.56  13 3.69  14 3.69  15 3.69  16 3.69  10 3.84  11 3.84  11 3.84
  10  0.500  0.000  0.352-  32 2.29  33 2.29  37 2.29  39 2.29  20 3.25  21 3.25  22 3.25  23 3.25
                             6 3.58  13 3.70  14 3.70  15 3.70  16 3.70   9 3.84   9 3.84  12 3.84
  11  0.000  0.500  0.352-  36 2.29  38 2.29  34 2.29  35 2.29  20 3.25  21 3.25  22 3.25  23 3.25
                             7 3.58  13 3.70  14 3.70  15 3.70  16 3.70   9 3.84   9 3.84  12 3.84
  12  0.500  0.500  0.352-  34 2.29  35 2.29  37 2.29  39 2.29  20 3.26  21 3.26  22 3.26  23 3.26
                             8 3.60  13 3.70  14 3.70  15 3.70  16 3.70  10 3.84  11 3.84  10 3.84
  13  0.249  0.249  0.146-  32 2.29  36 2.29  34 2.30  37 2.30  40 3.23  18 3.24  17 3.24  19 3.25
                             1 3.53   9 3.69  10 3.70  11 3.70  12 3.70  14 3.82  15 3.82  15 3.86
  14  0.751  0.249  0.146-  33 2.29  36 2.29  35 2.30  37 2.30  40 3.23  18 3.24  17 3.24  19 3.25
                             2 3.53   9 3.69  10 3.70  11 3.70  12 3.70  13 3.82  16 3.82  16 3.86
  15  0.249  0.751  0.146-  32 2.29  38 2.29  34 2.30  39 2.30  40 3.23  18 3.24  17 3.24  19 3.25
                             3 3.53   9 3.69  10 3.70  11 3.70  12 3.70  13 3.82  16 3.82  16 3.86
  16  0.751  0.751  0.146-  33 2.29  38 2.29  35 2.30  39 2.30  40 3.23  18 3.24  17 3.24  19 3.25
                             4 3.53   9 3.69  10 3.70  11 3.70  12 3.70  14 3.82  15 3.82  14 3.86
  17  0.500  0.000  0.000-   1 3.24   2 3.24   3 3.24   4 3.24  13 3.24  14 3.24  15 3.24  16 3.24

  18  0.000  0.500  0.000-   1 3.24   2 3.24   3 3.24   4 3.24  13 3.24  14 3.24  15 3.24  16 3.24

  19  0.500  0.500  0.000-   1 3.25   2 3.25   3 3.25   4 3.25  13 3.25  14 3.25  15 3.25  16 3.25

  20  0.250  0.250  0.500-   5 3.25   9 3.25   7 3.25   6 3.25  10 3.25  11 3.25   8 3.26  12 3.26

  21  0.750  0.250  0.500-   5 3.25   9 3.25   7 3.25   6 3.25  10 3.25  11 3.25   8 3.26  12 3.26

  22  0.250  0.750  0.500-   5 3.25   9 3.25   7 3.25   6 3.25  10 3.25  11 3.25   8 3.26  12 3.26

  23  0.750  0.750  0.500-   5 3.25   9 3.25   7 3.25   6 3.25  10 3.25  11 3.25   8 3.26  12 3.26

  24  0.000  0.250  0.750-   1 2.29   2 2.29   5 2.29   7 2.29
  25  0.500  0.250  0.751-   8 2.29   6 2.29   1 2.30   2 2.30
  26  0.000  0.750  0.750-   3 2.29   4 2.29   5 2.29   7 2.29
  27  0.500  0.750  0.751-   8 2.29   6 2.29   3 2.30   4 2.30
  28  0.250  0.000  0.750-   1 2.29   3 2.29   5 2.29   6 2.29
  29  0.750  0.000  0.750-   2 2.29   4 2.29   5 2.29   6 2.29
  30  0.250  0.500  0.751-   8 2.29   7 2.29   1 2.30   3 2.30
  31  0.750  0.500  0.751-   8 2.29   7 2.29   2 2.30   4 2.30
  32  0.250  0.000  0.250-  13 2.29  15 2.29   9 2.29  10 2.29
  33  0.750  0.000  0.250-  14 2.29  16 2.29   9 2.29  10 2.29
  34  0.250  0.500  0.249-  12 2.29  11 2.29  13 2.30  15 2.30
  35  0.750  0.500  0.249-  12 2.29  11 2.29  14 2.30  16 2.30
  36  0.000  0.250  0.250-  13 2.29  14 2.29   9 2.29  11 2.29
  37  0.500  0.250  0.249-  12 2.29  10 2.29  13 2.30  14 2.30
  38  0.000  0.750  0.250-  15 2.29  16 2.29   9 2.29  11 2.29
  39  0.500  0.750  0.249-  12 2.29  10 2.29  15 2.30  16 2.30
  40  0.000  0.000  0.000-   1 3.23   2 3.23   3 3.23   4 3.23  13 3.23  14 3.23  15 3.23  16 3.23

 
  LATTYP: Found a simple tetragonal cell.
 ALAT       =     7.6833558677
 C/A-ratio  =     1.5781187256
  
  Lattice vectors:
  
 A1 = (   7.6833558677,   0.0000000000,   0.0000000000)
 A2 = (   0.0000000000,   7.6833558677,   0.0000000000)
 A3 = (   0.0000000000,   0.0000000000,  12.1252477703)


Analysis of symmetry for initial positions (statically):
=====================================================================
 Subroutine PRICEL returns:
 Original cell was already a primitive cell.
 

 Routine SETGRP: Setting up the symmetry group for a 
 simple tetragonal supercell.


 Subroutine GETGRP returns: Found 16 space group operations
 (whereof 16 operations were pure point group operations)
 out of a pool of 16 trial point group operations.


The static configuration has the point symmetry D_4h.


Analysis of symmetry for dynamics (positions and initial velocities):
=====================================================================
 Subroutine PRICEL returns:
 Original cell was already a primitive cell.
 

 Routine SETGRP: Setting up the symmetry group for a 
 simple tetragonal supercell.


 Subroutine GETGRP returns: Found 16 space group operations
 (whereof 16 operations were pure point group operations)
 out of a pool of 16 trial point group operations.


The dynamic configuration has the point symmetry D_4h.


 Subroutine INISYM returns: Found 16 space group operations
 (whereof 16 operations are pure point group operations),
 and found     1 'primitive' translations


----------------------------------------------------------------------------------------

                                     Primitive cell                                     

  volume of cell :     715.8014

  direct lattice vectors                    reciprocal lattice vectors
     7.683355868  0.000000000  0.000000000     0.130151462  0.000000000  0.000000000
     0.000000000  7.683355868  0.000000000     0.000000000  0.130151462  0.000000000
     0.000000000  0.000000000 12.125247770     0.000000000  0.000000000  0.082472542

  length of vectors
     7.683355868  7.683355868 12.125247770     0.130151462  0.130151462  0.082472542

  position of ions in fractional coordinates (direct lattice)
     0.248911080  0.248911080  0.854281863
     0.751088920  0.248911080  0.854281863
     0.248911080  0.751088920  0.854281863
     0.751088920  0.751088920  0.854281863
     0.000000000  0.000000000  0.646717637
     0.500000000  0.000000000  0.647515869
     0.000000000  0.500000000  0.647515869
     0.500000000  0.500000000  0.648417300
     0.000000000  0.000000000  0.353282363
     0.500000000  0.000000000  0.352484131
     0.000000000  0.500000000  0.352484131
     0.500000000  0.500000000  0.351582700
     0.248911080  0.248911080  0.145718137
     0.751088920  0.248911080  0.145718137
     0.248911080  0.751088920  0.145718137
     0.751088920  0.751088920  0.145718137
     0.500000000  0.000000000  0.000000000
     0.000000000  0.500000000  0.000000000
     0.500000000  0.500000000  0.000000000
     0.250137640  0.250137640  0.500000000
     0.749862360  0.250137640  0.500000000
     0.250137640  0.749862360  0.500000000
     0.749862360  0.749862360  0.500000000
     0.000000000  0.249535178  0.750473502
     0.500000000  0.249670185  0.751393777
     0.000000000  0.750464822  0.750473502
     0.500000000  0.750329815  0.751393777
     0.249535178  0.000000000  0.750473502
     0.750464822  0.000000000  0.750473502
     0.249670185  0.500000000  0.751393777
     0.750329815  0.500000000  0.751393777
     0.249535178  0.000000000  0.249526498
     0.750464822  0.000000000  0.249526498
     0.249670185  0.500000000  0.248606223
     0.750329815  0.500000000  0.248606223
     0.000000000  0.249535178  0.249526498
     0.500000000  0.249670185  0.248606223
     0.000000000  0.750464822  0.249526498
     0.500000000  0.750329815  0.248606223
     0.000000000  0.000000000  0.000000000

  ion indices of the primitive-cell ions
   primitive index   ion index
                 1           1
                 2           2
                 3           3
                 4           4
                 5           5
                 6           6
                 7           7
                 8           8
                 9           9
                10          10
                11          11
                12          12
                13          13
                14          14
                15          15
                16          16
                17          17
                18          18
                19          19
                20          20
                21          21
                22          22
                23          23
                24          24
                25          25
                26          26
                27          27
                28          28
                29          29
                30          30
                31          31
                32          32
                33          33
                34          34
                35          35
                36          36
                37          37
                38          38
                39          39
                40          40

----------------------------------------------------------------------------------------

 
 
 KPOINTS: K-Spacing Value to Generate K-Mesh: 0.03

Automatic generation of k-mesh.
 Grid dimensions read from file:
 generate k-points for:    4    4    3

 Generating k-lattice:

  Cartesian coordinates                     Fractional coordinates (reciprocal lattice)
     0.032537866  0.000000000  0.000000000     0.250000000  0.000000000  0.000000000
     0.000000000  0.032537866  0.000000000     0.000000000  0.250000000  0.000000000
     0.000000000  0.000000000  0.027490847     0.000000000  0.000000000  0.333333333

  Length of vectors
     0.032537866  0.032537866  0.027490847

  Shift w.r.t. Gamma in fractional coordinates (k-lattice)
     0.000000000  0.000000000  0.000000000

 
 Subroutine IBZKPT returns following result:
 ===========================================
 
 Found     12 irreducible k-points:
 
 Following reciprocal coordinates:
            Coordinates               Weight
  0.000000  0.000000  0.000000      1.000000
  0.250000  0.000000  0.000000      4.000000
  0.500000  0.000000  0.000000      2.000000
  0.250000  0.250000  0.000000      4.000000
  0.500000  0.250000  0.000000      4.000000
  0.500000  0.500000  0.000000      1.000000
  0.000000  0.000000  0.333333      2.000000
  0.250000  0.000000  0.333333      8.000000
  0.500000  0.000000  0.333333      4.000000
  0.250000  0.250000  0.333333      8.000000
  0.500000  0.250000  0.333333      8.000000
  0.500000  0.500000  0.333333      2.000000
 
 Following cartesian coordinates:
            Coordinates               Weight
  0.000000  0.000000  0.000000      1.000000
  0.031887  0.000000  0.000000      4.000000
  0.063774  0.000000  0.000000      2.000000
  0.031887  0.031887  0.000000      4.000000
  0.063774  0.031887  0.000000      4.000000
  0.063774  0.063774  0.000000      1.000000
  0.000000  0.000000  0.026941      2.000000
  0.031887  0.000000  0.026941      8.000000
  0.063774  0.000000  0.026941      4.000000
  0.031887  0.031887  0.026941      8.000000
  0.063774  0.031887  0.026941      8.000000
  0.063774  0.063774  0.026941      2.000000
 


--------------------------------------------------------------------------------------------------------




 Dimension of arrays:
   k-points           NKPTS =     12   k-points in BZ     NKDIM =     12   number of bands    NBANDS=    232
   number of dos      NEDOS =    301   number of ions     NIONS =     40
   non local maximal  LDIM  =      6   non local SUM 2l+1 LMDIM =     18
   total plane-waves  NPLWV = 324000
   max r-space proj   IRMAX =      1   max aug-charges    IRDMAX= 160212
   dimension x,y,z NGX =    60 NGY =   60 NGZ =   90
   dimension x,y,z NGXF=   120 NGYF=  120 NGZF=  180
   support grid    NGXF=   240 NGYF=  240 NGZF=  360
   ions per type =              16   7  16   1
   NGX,Y,Z   is equivalent  to a cutoff of  12.98, 12.98, 12.34 a.u.
   NGXF,Y,Z  is equivalent  to a cutoff of  25.96, 25.96, 24.68 a.u.

 SYSTEM =  unknown system                          
 POSCAR =  generated by phonopy                    

 Startparameter for this run:
   NWRITE =      2    write-flag & timer
   PREC   = accura    normal or accurate (medium, high low for compatibility)
   ISTART =      0    job   : 0-new  1-cont  2-samecut
   ICHARG =      2    charge: 1-file 2-atom 10-const
   ISPIN  =      1    spin polarized calculation?
   LNONCOLLINEAR =      F non collinear calculations
   LSORBIT =      F    spin-orbit coupling
   INIWAV =      1    electr: 0-lowe 1-rand  2-diag
   LASPH  =      F    aspherical Exc in radial PAW
 Electronic Relaxation 1
   ENCUT  =  520.0 eV  38.22 Ry    6.18 a.u.  14.29 14.29 22.54*2*pi/ulx,y,z
   ENINI  =  520.0     initial cutoff
   ENAUG  =  605.4 eV  augmentation charge cutoff
   NELM   =     60;   NELMIN=  5; NELMDL= -5     # of ELM steps 
   EDIFF  = 0.1E-07   stopping-criterion for ELM
   LREAL  =      F    real-space projection
   NLSPLINE    = F    spline interpolate recip. space projectors
   LCOMPAT=      F    compatible to vasp.4.4
   GGA_COMPAT  = T    GGA compatible to vasp.4.4-vasp.4.6
   LMAXPAW     = -100 max onsite density
   LMAXMIX     =    2 max onsite mixed and CHGCAR
   VOSKOWN=      0    Vosko Wilk Nusair interpolation
   ROPT   =    0.00000   0.00000   0.00000   0.00000
 Ionic relaxation
   EDIFFG = -.1E-04   stopping-criterion for IOM
   NSW    =    100    number of steps for IOM
   NBLOCK =      1;   KBLOCK =    100    inner block; outer block 
   IBRION =      2    ionic relax: 0-MD 1-quasi-New 2-CG
   NFREE  =      1    steps in history (QN), initial steepest desc. (CG)
   ISIF   =      2    stress and relaxation
   IWAVPR =     11    prediction:  0-non 1-charg 2-wave 3-comb
   ISYM   =      2    0-nonsym 1-usesym 2-fastsym
   LCORR  =      T    Harris-Foulkes like correction to forces

   POTIM  = 0.5000    time-step for ionic-motion
   TEIN   =    0.0    initial temperature
   TEBEG  =    0.0;   TEEND  =   0.0 temperature during run
   SMASS  =  -3.00    Nose mass-parameter (am)
   estimated Nose-frequenzy (Omega)   =  0.10E-29 period in steps = 0.13E+47 mass=  -0.135E-26a.u.
   SCALEE = 1.0000    scale energy and forces
   NPACO  =    256;   APACO  = 10.0  distance and # of slots for P.C.
   PSTRESS=    0.0 pullay stress

  Mass of Ions in am
   POMASS = 208.98 78.96 16.00 32.07
  Ionic Valenz
   ZVAL   =  15.00  6.00  6.00  6.00
  Atomic Wigner-Seitz radii
   RWIGS  =  -1.00 -1.00 -1.00 -1.00
  virtual crystal weights 
   VCA    =   1.00  1.00  1.00  1.00
   NELECT =     384.0000    total number of electrons
   NUPDOWN=      -1.0000    fix difference up-down

 DOS related values:
   EMIN   =  10.00;   EMAX   =-10.00  energy-range for DOS
   EFERMI =   0.00;   METHOD = LEGACY      
   ISMEAR =     0;   SIGMA  =   0.05  broadening in eV -4-tet -1-fermi 0-gaus

 Electronic relaxation 2 (details)
   IALGO  =     38    algorithm
   LDIAG  =      T    sub-space diagonalisation (order eigenvalues)
   LSUBROT=      F    optimize rotation matrix (better conditioning)
   TURBO    =      0    0=normal 1=particle mesh
   IRESTART =      0    0=no restart 2=restart with 2 vectors
   NREBOOT  =      0    no. of reboots
   NMIN     =      0    reboot dimension
   EREF     =   0.00    reference energy to select bands
   IMIX   =      4    mixing-type and parameters
     AMIX     =   0.40;   BMIX     =  1.00
     AMIX_MAG =   1.60;   BMIX_MAG =  1.00
     AMIN     =   0.10
     WC   =   100.;   INIMIX=   1;  MIXPRE=   1;  MAXMIX= -45

 Intra band minimization:
   WEIMIN = 0.0010     energy-eigenvalue tresh-hold
   EBREAK =  0.11E-10  absolut break condition
   DEPER  =   0.30     relativ break condition  

   TIME   =   0.40     timestep for ELM

  volume/ion in A,a.u.               =      17.90       120.76
  Fermi-wavevector in a.u.,A,eV,Ry     =   1.330213  2.513737 24.075042  1.769466
  Thomas-Fermi vector in A             =   2.459317
 
 Write flags
   LWAVE        =      F    write WAVECAR
   LDOWNSAMPLE  =      F    k-point downsampling of WAVECAR
   LCHARG       =      F    write CHGCAR
   LVTOT        =      F    write LOCPOT, total local potential
   LVHAR        =      F    write LOCPOT, Hartree potential only
   WRT_POTENTIAL= false  ! write potential to hdf5 file
   LELF         =      F    write electronic localiz. function (ELF)
   LORBIT       =      0    0 simple, 1 ext, 2 COOP (PROOUT), +10 PAW based schemes


 Dipole corrections
   LMONO      =      F    monopole corrections only (constant potential shift)
   LDIPOL     =      F    correct potential (dipole corrections)
   IDIPOL     =      0    1-x, 2-y, 3-z, 4-all directions 
   EPSILON    =  1.0000000 bulk dielectric constant
   LVACPOTAV  =      F  vacuum potentials using an averaging scheme for the charge density
   VACPOTFLAT =  0.1000000 required flatness to determine vacuum potential
 Exchange correlation treatment:
   GGA     = PE    functional components
   XC_C    = 1    coefficients multiplying the functional components
   LIBXC   =     F    Libxc                    
   VOSKOWN =     0    Vosko Wilk Nusair interpolation
   LHFCALC =     F    Hartree Fock is set to
   LHFONE  =     F    Hartree Fock one center treatment
   AEXX    =    0.0000 exact exchange contribution

 Parameters of functionals:
   PE:
     No parameter
 
 Van der Waals corrections
   IVDW    =     0    specifies the selected vdW correction

 Linear response parameters
   LEPSILON=     F    determine dielectric tensor
   LRPA    =     F    only Hartree local field effects (RPA)
   LNABLA  =     F    use nabla operator in PAW spheres
   LVEL    =     F    velocity operator in full k-point grid
   CSHIFT  =0.1000    complex shift for real part using Kramers Kronig
   OMEGAMAX=  -1.0    maximum frequency
   DEG_THRESHOLD= 0.2000000E-02 threshold for treating states as degnerate
   RTIME   =   -0.100 relaxation time in fs
  (WPLASMAI=    0.000 imaginary part of plasma frequency in eV, 0.658/RTIME)
   DFIELD  = 0.0000000 0.0000000 0.0000000 field for delta impulse in time
 
  Optional k-point grid parameters
   LKPOINTS_OPT  =     F    use optional k-point grid
   KPOINTS_OPT_MODE=     1    mode for optional k-point grid
 
 Orbital magnetization related:
   ORBITALMAG=     F  switch on orbital magnetization
   LCHIMAG   =     F  perturbation theory with respect to B field
   DQ        =  0.001000  dq finite difference perturbation B field
   LLRAUG    =     F  two centre corrections for induced B field
   LBONE     =     F  B-component reconstruction in AE one-centre
   LVGVCALC  =     T  calculate vGv susceptibility
   LVGVAPPL  =     F  apply vGv susceptibility instead of pGv for G=0

 Random number generation:
   RANDOM_GENERATOR = DEFAULT
   PCG_SEED         = not used


--------------------------------------------------------------------------------------------------------


 conjugate gradient relaxation of ions
 charge density and potential will be updated during run
 non-spin polarized calculation
 Variant of blocked Davidson
 Davidson routine will perform the subspace rotation
 perform sub-space diagonalisation
    after iterative eigenvector-optimisation
 modified Broyden-mixing scheme, WC =      100.0
 initial mixing is a Kerker type mixing with AMIX =  0.4000 and BMIX =      1.0000
 Hartree-type preconditioning will be used
 using additional bands           40
 reciprocal scheme for non local part
 use partial core corrections
 calculate Harris-corrections to forces 
   (improved forces if not selfconsistent)
 use gradient corrections 
 use of overlap-Matrix (Vanderbilt PP)
 Gauss-broadening in eV      SIGMA  =   0.05


--------------------------------------------------------------------------------------------------------


  energy-cutoff  :      520.00
  volume of cell :      715.80
      direct lattice vectors                 reciprocal lattice vectors
     7.683355868  0.000000000  0.000000000     0.130151462  0.000000000  0.000000000
     0.000000000  7.683355868  0.000000000     0.000000000  0.130151462  0.000000000
     0.000000000  0.000000000 12.125247770     0.000000000  0.000000000  0.082472542

  length of vectors
     7.683355868  7.683355868 12.125247770     0.130151462  0.130151462  0.082472542


 
 k-points in units of 2pi/SCALE and weight: K-Spacing Value to Generate K-Mesh: 0.03
   0.00000000  0.00000000  0.00000000       0.021
   0.03188711  0.00000000  0.00000000       0.083
   0.06377422  0.00000000  0.00000000       0.042
   0.03188711  0.03188711  0.00000000       0.083
   0.06377422  0.03188711  0.00000000       0.083
   0.06377422  0.06377422  0.00000000       0.021
   0.00000000  0.00000000  0.02694103       0.042
   0.03188711  0.00000000  0.02694103       0.167
   0.06377422  0.00000000  0.02694103       0.083
   0.03188711  0.03188711  0.02694103       0.167
   0.06377422  0.03188711  0.02694103       0.167
   0.06377422  0.06377422  0.02694103       0.042
 
 k-points in reciprocal lattice and weights: K-Spacing Value to Generate K-Mesh: 0.03
   0.00000000  0.00000000  0.00000000       0.021
   0.25000000  0.00000000  0.00000000       0.083
   0.50000000  0.00000000  0.00000000       0.042
   0.25000000  0.25000000  0.00000000       0.083
   0.50000000  0.25000000  0.00000000       0.083
   0.50000000  0.50000000  0.00000000       0.021
   0.00000000  0.00000000  0.33333333       0.042
   0.25000000  0.00000000  0.33333333       0.167
   0.50000000  0.00000000  0.33333333       0.083
   0.25000000  0.25000000  0.33333333       0.167
   0.50000000  0.25000000  0.33333333       0.167
   0.50000000  0.50000000  0.33333333       0.042
 
 position of ions in fractional coordinates (direct lattice) 
   0.24891108  0.24891108  0.85428186
   0.75108892  0.24891108  0.85428186
   0.24891108  0.75108892  0.85428186
   0.75108892  0.75108892  0.85428186
   0.00000000  0.00000000  0.64671764
   0.50000000  0.00000000  0.64751587
   0.00000000  0.50000000  0.64751587
   0.50000000  0.50000000  0.64841730
   0.00000000  0.00000000  0.35328236
   0.50000000  0.00000000  0.35248413
   0.00000000  0.50000000  0.35248413
   0.50000000  0.50000000  0.35158270
   0.24891108  0.24891108  0.14571814
   0.75108892  0.24891108  0.14571814
   0.24891108  0.75108892  0.14571814
   0.75108892  0.75108892  0.14571814
   0.50000000  0.00000000  0.00000000
   0.00000000  0.50000000  0.00000000
   0.50000000  0.50000000  0.00000000
   0.25013764  0.25013764  0.50000000
   0.74986236  0.25013764  0.50000000
   0.25013764  0.74986236  0.50000000
   0.74986236  0.74986236  0.50000000
   0.00000000  0.24953518  0.75047350
   0.50000000  0.24967019  0.75139378
   0.00000000  0.75046482  0.75047350
   0.50000000  0.75032981  0.75139378
   0.24953518  0.00000000  0.75047350
   0.75046482  0.00000000  0.75047350
   0.24967019  0.50000000  0.75139378
   0.75032981  0.50000000  0.75139378
   0.24953518  0.00000000  0.24952650
   0.75046482  0.00000000  0.24952650
   0.24967019  0.50000000  0.24860622
   0.75032981  0.50000000  0.24860622
   0.00000000  0.24953518  0.24952650
   0.50000000  0.24967019  0.24860622
   0.00000000  0.75046482  0.24952650
   0.50000000  0.75032981  0.24860622
   0.00000000  0.00000000  0.00000000
 
 position of ions in cartesian coordinates  (Angst):
   1.91247241  1.91247241 10.35837925
   5.77088346  1.91247241 10.35837925
   1.91247241  5.77088346 10.35837925
   5.77088346  5.77088346 10.35837925
   0.00000000  0.00000000  7.84161158
   3.84167793  0.00000000  7.85129035
   0.00000000  3.84167793  7.85129035
   3.84167793  3.84167793  7.86222042
   0.00000000  0.00000000  4.28363619
   3.84167793  0.00000000  4.27395742
   0.00000000  3.84167793  4.27395742
   3.84167793  3.84167793  4.26302735
   1.91247241  1.91247241  1.76686852
   5.77088346  1.91247241  1.76686852
   1.91247241  5.77088346  1.76686852
   5.77088346  5.77088346  1.76686852
   3.84167793  0.00000000  0.00000000
   0.00000000  3.84167793  0.00000000
   3.84167793  3.84167793  0.00000000
   1.92189650  1.92189650  6.06262389
   5.76145937  1.92189650  6.06262389
   1.92189650  5.76145937  6.06262389
   5.76145937  5.76145937  6.06262389
   0.00000000  1.91726757  9.09967716
   3.84167793  1.91830488  9.11083572
   0.00000000  5.76608830  9.09967716
   3.84167793  5.76505099  9.11083572
   1.91726757  0.00000000  9.09967716
   5.76608830  0.00000000  9.09967716
   1.91830488  3.84167793  9.11083572
   5.76505099  3.84167793  9.11083572
   1.91726757  0.00000000  3.02557062
   5.76608830  0.00000000  3.02557062
   1.91830488  3.84167793  3.01441205
   5.76505099  3.84167793  3.01441205
   0.00000000  1.91726757  3.02557062
   3.84167793  1.91830488  3.01441205
   0.00000000  5.76608830  3.02557062
   3.84167793  5.76505099  3.01441205
   0.00000000  0.00000000  0.00000000
 


--------------------------------------------------------------------------------------------------------


 k-point     1 :   0.0000 0.0000 0.0000  plane waves:   19333
 k-point     2 :   0.2500 0.0000 0.0000  plane waves:   19285
 k-point     3 :   0.5000 0.0000 0.0000  plane waves:   19288
 k-point     4 :   0.2500 0.2500 0.0000  plane waves:   19270
 k-point     5 :   0.5000 0.2500 0.0000  plane waves:   19268
 k-point     6 :   0.5000 0.5000 0.0000  plane waves:   19288
 k-point     7 :   0.0000 0.0000 0.3333  plane waves:   19233
 k-point     8 :   0.2500 0.0000 0.3333  plane waves:   19276
 k-point     9 :   0.5000 0.0000 0.3333  plane waves:   19270
 k-point    10 :   0.2500 0.2500 0.3333  plane waves:   19279
 k-point    11 :   0.5000 0.2500 0.3333  plane waves:   19264
 k-point    12 :   0.5000 0.5000 0.3333  plane waves:   19280

 maximum and minimum number of plane-waves per node :      2161     2120

 maximum number of plane-waves:     19333
 maximum index in each direction: 
   IXMAX=   14   IYMAX=   14   IZMAX=   22
   IXMIN=  -14   IYMIN=  -14   IZMIN=  -22


 parallel 3D FFT for wavefunctions:
    minimum data exchange during FFTs selected (reduces bandwidth)
 parallel 3D FFT for charge:
    minimum data exchange during FFTs selected (reduces bandwidth)


 total amount of memory used by VASP MPI-rank0    91043. kBytes
=======================================================================

   base      :      30000. kBytes
   nonl-proj :      16251. kBytes
   fftplans  :      12201. kBytes
   grid      :       7793. kBytes
   one-center:         77. kBytes
   wavefun   :      24721. kBytes
 
     INWAV:  cpu time      0.0000: real time      0.0000
 Broyden mixing: mesh for mixing (old mesh)
   NGX = 29   NGY = 29   NGZ = 45
  (NGX  =120   NGY  =120   NGZ  =180)
  gives a total of  37845 points

 initial charge density was supplied:
 charge density of overlapping atoms calculated
 number of electron     384.0000000 magnetization 
 keeping initial charge density in first step


--------------------------------------------------------------------------------------------------------


 Maximum index for augmentation-charges         5132 (set IRDMAX)


--------------------------------------------------------------------------------------------------------


 First call to EWALD:  gamma=   0.198
 Maximum number of real-space cells 3x 3x 2
 Maximum number of reciprocal cells 2x 2x 4

    FEWALD:  cpu time      0.0025: real time      0.0025


--------------------------------------- Ionic step        1  -------------------------------------------




--------------------------------------- Iteration      1(   1)  ---------------------------------------


    POTLOK:  cpu time      0.1616: real time      0.1616
    SETDIJ:  cpu time      0.6511: real time      0.6517
     EDDAV:  cpu time     30.1184: real time     30.1350
       DOS:  cpu time      0.0057: real time      0.0060
    --------------------------------------------
      LOOP:  cpu time     30.9369: real time     30.9544

 eigenvalue-minimisations  :  5568
 total energy-change (2. order) : 0.5810381E+04  (-0.1741604E+05)
 number of electron     384.0000000 magnetization 
 augmentation part      384.0000000 magnetization 

 Free energy of the ion-electron system (eV)
  ---------------------------------------------------
  alpha Z        PSCENC =      1411.22415806
  Ewald energy   TEWEN  =    -30043.19675302
  -Hartree energ DENC   =    -11115.82030861
  -exchange      EXHF   =         0.00000000
  -V(xc)+E(xc)   XCENC  =      1241.01686519
  PAW double counting   =     34040.00696010   -33495.80632930
  entropy T*S    EENTRO =        -0.01260268
  eigenvalues    EBANDS =      3431.31680647
  atomic energy  EATOM  =     40341.65184589
  Solvation  Ediel_sol  =         0.00000000
  ---------------------------------------------------
  free energy    TOTEN  =      5810.38064211 eV

  energy without entropy =     5810.39324480  energy(sigma->0) =     5810.38694345


--------------------------------------------------------------------------------------------------------




--------------------------------------- Iteration      1(   2)  ---------------------------------------


     EDDAV:  cpu time     30.1576: real time     30.1773
       DOS:  cpu time      0.0022: real time      0.0024
    --------------------------------------------
      LOOP:  cpu time     30.1598: real time     30.1796

 eigenvalue-minimisations  :  5576
 total energy-change (2. order) :-0.4789039E+04  (-0.4650057E+04)
 number of electron     384.0000000 magnetization 
 augmentation part      384.0000000 magnetization 

 Free energy of the ion-electron system (eV)
  ---------------------------------------------------
  alpha Z        PSCENC =      1411.22415806
  Ewald energy   TEWEN  =    -30043.19675302
  -Hartree energ DENC   =    -11115.82030861
  -exchange      EXHF   =         0.00000000
  -V(xc)+E(xc)   XCENC  =      1241.01686519
  PAW double counting   =     34040.00696010   -33495.80632930
  entropy T*S    EENTRO =        -0.00931433
  eigenvalues    EBANDS =     -1357.72513688
  atomic energy  EATOM  =     40341.65184589
  Solvation  Ediel_sol  =         0.00000000
  ---------------------------------------------------
  free energy    TOTEN  =      1021.34198711 eV

  energy without entropy =     1021.35130144  energy(sigma->0) =     1021.34664428


--------------------------------------------------------------------------------------------------------




--------------------------------------- Iteration      1(   3)  ---------------------------------------


     EDDAV:  cpu time     32.4966: real time     32.5186
       DOS:  cpu time      0.0015: real time      0.0016
    --------------------------------------------
      LOOP:  cpu time     32.4981: real time     32.5202

 eigenvalue-minimisations  :  6192
 total energy-change (2. order) :-0.1123184E+04  (-0.1044677E+04)
 number of electron     384.0000000 magnetization 
 augmentation part      384.0000000 magnetization 

 Free energy of the ion-electron system (eV)
  ---------------------------------------------------
  alpha Z        PSCENC =      1411.22415806
  Ewald energy   TEWEN  =    -30043.19675302
  -Hartree energ DENC   =    -11115.82030861
  -exchange      EXHF   =         0.00000000
  -V(xc)+E(xc)   XCENC  =      1241.01686519
  PAW double counting   =     34040.00696010   -33495.80632930
  entropy T*S    EENTRO =        -0.00000000
  eigenvalues    EBANDS =     -2480.91840704
  atomic energy  EATOM  =     40341.65184589
  Solvation  Ediel_sol  =         0.00000000
  ---------------------------------------------------
  free energy    TOTEN  =      -101.84196871 eV

  energy without entropy =     -101.84196871  energy(sigma->0) =     -101.84196871


--------------------------------------------------------------------------------------------------------




--------------------------------------- Iteration      1(   4)  ---------------------------------------


     EDDAV:  cpu time     34.6005: real time     34.6262
       DOS:  cpu time      0.0015: real time      0.0016
    --------------------------------------------
      LOOP:  cpu time     34.6020: real time     34.6277

 eigenvalue-minimisations  :  6744
 total energy-change (2. order) :-0.1335992E+03  (-0.1297502E+03)
 number of electron     384.0000000 magnetization 
 augmentation part      384.0000000 magnetization 

 Free energy of the ion-electron system (eV)
  ---------------------------------------------------
  alpha Z        PSCENC =      1411.22415806
  Ewald energy   TEWEN  =    -30043.19675302
  -Hartree energ DENC   =    -11115.82030861
  -exchange      EXHF   =         0.00000000
  -V(xc)+E(xc)   XCENC  =      1241.01686519
  PAW double counting   =     34040.00696010   -33495.80632930
  entropy T*S    EENTRO =        -0.00000000
  eigenvalues    EBANDS =     -2614.51760242
  atomic energy  EATOM  =     40341.65184589
  Solvation  Ediel_sol  =         0.00000000
  ---------------------------------------------------
  free energy    TOTEN  =      -235.44116410 eV

  energy without entropy =     -235.44116410  energy(sigma->0) =     -235.44116410


--------------------------------------------------------------------------------------------------------




--------------------------------------- Iteration      1(   5)  ---------------------------------------


     EDDAV:  cpu time     33.9705: real time     33.9922
       DOS:  cpu time      0.0029: real time      0.0031
    CHARGE:  cpu time      1.2808: real time      1.2817
    MIXING:  cpu time      0.0069: real time      0.0069
    --------------------------------------------
      LOOP:  cpu time     35.2611: real time     35.2839

 eigenvalue-minimisations  :  6576
 total energy-change (2. order) :-0.5685818E+01  (-0.5606248E+01)
 number of electron     384.0000002 magnetization 
 augmentation part       98.4112013 magnetization 

 Broyden mixing:
  rms(total) = 0.34014E+01    rms(broyden)= 0.34008E+01
  rms(prec ) = 0.43351E+01
  weight for this iteration     100.00

 Free energy of the ion-electron system (eV)
  ---------------------------------------------------
  alpha Z        PSCENC =      1411.22415806
  Ewald energy   TEWEN  =    -30043.19675302
  -Hartree energ DENC   =    -11115.82030861
  -exchange      EXHF   =         0.00000000
  -V(xc)+E(xc)   XCENC  =      1241.01686519
  PAW double counting   =     34040.00696010   -33495.80632930
  entropy T*S    EENTRO =        -0.00000000
  eigenvalues    EBANDS =     -2620.20342080
  atomic energy  EATOM  =     40341.65184589
  Solvation  Ediel_sol  =         0.00000000
  ---------------------------------------------------
  free energy    TOTEN  =      -241.12698247 eV

  energy without entropy =     -241.12698247  energy(sigma->0) =     -241.12698247


--------------------------------------------------------------------------------------------------------




--------------------------------------- Iteration      1(   6)  ---------------------------------------


    POTLOK:  cpu time      0.1584: real time      0.1586
    SETDIJ:  cpu time      0.6509: real time      0.6509
     EDDAV:  cpu time     38.4600: real time     38.4877
       DOS:  cpu time      0.0016: real time      0.0017
    CHARGE:  cpu time      1.2832: real time      1.2831
    MIXING:  cpu time      0.0058: real time      0.0058
    --------------------------------------------
      LOOP:  cpu time     40.5599: real time     40.5878

 eigenvalue-minimisations  :  7752
 total energy-change (2. order) : 0.3376034E+02  (-0.1347999E+02)
 number of electron     384.0000002 magnetization 
 augmentation part       95.4153553 magnetization 

 Broyden mixing:
  rms(total) = 0.12182E+01    rms(broyden)= 0.12169E+01
  rms(prec ) = 0.14618E+01
  weight for this iteration     100.00

 eigenvalues of (default mixing * dielectric matrix)
  average eigenvalue GAMMA=   0.8006
  0.8006

 Free energy of the ion-electron system (eV)
  ---------------------------------------------------
  alpha Z        PSCENC =      1411.22415806
  Ewald energy   TEWEN  =    -30043.19675302
  -Hartree energ DENC   =    -11361.39220451
  -exchange      EXHF   =         0.00000000
  -V(xc)+E(xc)   XCENC  =      1260.47168217
  PAW double counting   =     34876.73849187   -34293.00455838
  entropy T*S    EENTRO =        -0.00000000
  eigenvalues    EBANDS =     -2399.85930691
  atomic energy  EATOM  =     40341.65184589
  Solvation  Ediel_sol  =         0.00000000
  ---------------------------------------------------
  free energy    TOTEN  =      -207.36664483 eV

  energy without entropy =     -207.36664483  energy(sigma->0) =     -207.36664483


--------------------------------------------------------------------------------------------------------




--------------------------------------- Iteration      1(   7)  ---------------------------------------


    POTLOK:  cpu time      0.1581: real time      0.1584
    SETDIJ:  cpu time      0.6539: real time      0.6546
     EDDAV:  cpu time     32.0963: real time     32.1273
       DOS:  cpu time      0.0016: real time      0.0016
    CHARGE:  cpu time      1.2816: real time      1.2820
    MIXING:  cpu time      0.0057: real time      0.0057
    --------------------------------------------
      LOOP:  cpu time     34.1972: real time     34.2297

 eigenvalue-minimisations  :  6088
 total energy-change (2. order) :-0.5007204E+00  (-0.2922420E+01)
 number of electron     384.0000002 magnetization 
 augmentation part       95.0315977 magnetization 

 Broyden mixing:
  rms(total) = 0.80826E+00    rms(broyden)= 0.80825E+00
  rms(prec ) = 0.88583E+00
  weight for this iteration     100.00

 eigenvalues of (default mixing * dielectric matrix)
  average eigenvalue GAMMA=   1.1424
  1.1424  1.1424

 Free energy of the ion-electron system (eV)
  ---------------------------------------------------
  alpha Z        PSCENC =      1411.22415806
  Ewald energy   TEWEN  =    -30043.19675302
  -Hartree energ DENC   =    -11283.05765612
  -exchange      EXHF   =         0.00000000
  -V(xc)+E(xc)   XCENC  =      1257.97474366
  PAW double counting   =     35777.81973534   -35187.38070845
  entropy T*S    EENTRO =        -0.00000000
  eigenvalues    EBANDS =     -2482.90273063
  atomic energy  EATOM  =     40341.65184589
  Solvation  Ediel_sol  =         0.00000000
  ---------------------------------------------------
  free energy    TOTEN  =      -207.86736527 eV

  energy without entropy =     -207.86736527  energy(sigma->0) =     -207.86736527


--------------------------------------------------------------------------------------------------------




--------------------------------------- Iteration      1(   8)  ---------------------------------------


    POTLOK:  cpu time      0.1576: real time      0.1577
    SETDIJ:  cpu time      0.6537: real time      0.6539
     EDDAV:  cpu time     39.8971: real time     39.9103
       DOS:  cpu time      0.0018: real time      0.0019
    CHARGE:  cpu time      1.2823: real time      1.2824
    MIXING:  cpu time      0.0057: real time      0.0057
    --------------------------------------------
      LOOP:  cpu time     41.9983: real time     42.0119

 eigenvalue-minimisations  :  8136
 total energy-change (2. order) :-0.1135176E+00  (-0.5398135E+00)
 number of electron     384.0000002 magnetization 
 augmentation part       95.3328119 magnetization 

 Broyden mixing:
  rms(total) = 0.35844E+00    rms(broyden)= 0.35833E+00
  rms(prec ) = 0.42438E+00
  weight for this iteration     100.00

 eigenvalues of (default mixing * dielectric matrix)
  average eigenvalue GAMMA=   1.3403
  2.2946  0.8631  0.8631

 Free energy of the ion-electron system (eV)
  ---------------------------------------------------
  alpha Z        PSCENC =      1411.22415806
  Ewald energy   TEWEN  =    -30043.19675302
  -Hartree energ DENC   =    -11267.19378326
  -exchange      EXHF   =         0.00000000
  -V(xc)+E(xc)   XCENC  =      1257.07932004
  PAW double counting   =     36279.99223432   -35685.45568437
  entropy T*S    EENTRO =        -0.00000000
  eigenvalues    EBANDS =     -2502.08222053
  atomic energy  EATOM  =     40341.65184589
  Solvation  Ediel_sol  =         0.00000000
  ---------------------------------------------------
  free energy    TOTEN  =      -207.98088287 eV

  energy without entropy =     -207.98088287  energy(sigma->0) =     -207.98088287


--------------------------------------------------------------------------------------------------------




--------------------------------------- Iteration      1(   9)  ---------------------------------------


    POTLOK:  cpu time      0.1588: real time      0.1589
    SETDIJ:  cpu time      0.6536: real time      0.6535
     EDDAV:  cpu time     36.9139: real time     36.9325
       DOS:  cpu time      0.0019: real time      0.0021
    CHARGE:  cpu time      1.2780: real time      1.2789
    MIXING:  cpu time      0.0091: real time      0.0091
    --------------------------------------------
      LOOP:  cpu time     39.0153: real time     39.0350

 eigenvalue-minimisations  :  7360
 total energy-change (2. order) : 0.8580113E-01  (-0.6809676E-01)
 number of electron     384.0000002 magnetization 
 augmentation part       95.0553056 magnetization 

 Broyden mixing:
  rms(total) = 0.14368E+00    rms(broyden)= 0.14366E+00
  rms(prec ) = 0.16995E+00
  weight for this iteration     100.00

 eigenvalues of (default mixing * dielectric matrix)
  average eigenvalue GAMMA=   1.3411
  2.4967  1.1654  0.8512  0.8512

 Free energy of the ion-electron system (eV)
  ---------------------------------------------------
  alpha Z        PSCENC =      1411.22415806
  Ewald energy   TEWEN  =    -30043.19675302
  -Hartree energ DENC   =    -11298.23739636
  -exchange      EXHF   =         0.00000000
  -V(xc)+E(xc)   XCENC  =      1259.07371111
  PAW double counting   =     36743.06247233   -36144.08969784
  entropy T*S    EENTRO =        -0.00000000
  eigenvalues    EBANDS =     -2477.38342191
  atomic energy  EATOM  =     40341.65184589
  Solvation  Ediel_sol  =         0.00000000
  ---------------------------------------------------
  free energy    TOTEN  =      -207.89508174 eV

  energy without entropy =     -207.89508174  energy(sigma->0) =     -207.89508174


--------------------------------------------------------------------------------------------------------




--------------------------------------- Iteration      1(  10)  ---------------------------------------


    POTLOK:  cpu time      0.1571: real time      0.1572
    SETDIJ:  cpu time      0.6549: real time      0.6555
     EDDAV:  cpu time     35.4861: real time     35.4879
       DOS:  cpu time      0.0015: real time      0.0017
    CHARGE:  cpu time      1.2827: real time      1.2828
    MIXING:  cpu time      0.0064: real time      0.0064
    --------------------------------------------
      LOOP:  cpu time     37.5888: real time     37.5916

 eigenvalue-minimisations  :  6976
 total energy-change (2. order) : 0.1059756E-01  (-0.1604178E-01)
 number of electron     384.0000002 magnetization 
 augmentation part       95.0572446 magnetization 

 Broyden mixing:
  rms(total) = 0.34935E-01    rms(broyden)= 0.34922E-01
  rms(prec ) = 0.36664E-01
  weight for this iteration     100.00

 eigenvalues of (default mixing * dielectric matrix)
  average eigenvalue GAMMA=   1.1884
  2.4476  1.1063  0.8488  0.8488  0.6907

 Free energy of the ion-electron system (eV)
  ---------------------------------------------------
  alpha Z        PSCENC =      1411.22415806
  Ewald energy   TEWEN  =    -30043.19675302
  -Hartree energ DENC   =    -11290.61117275
  -exchange      EXHF   =         0.00000000
  -V(xc)+E(xc)   XCENC  =      1258.80276474
  PAW double counting   =     36902.61365110   -36303.63238274
  entropy T*S    EENTRO =        -0.00000000
  eigenvalues    EBANDS =     -2484.73659546
  atomic energy  EATOM  =     40341.65184589
  Solvation  Ediel_sol  =         0.00000000
  ---------------------------------------------------
  free energy    TOTEN  =      -207.88448418 eV

  energy without entropy =     -207.88448418  energy(sigma->0) =     -207.88448418


--------------------------------------------------------------------------------------------------------




--------------------------------------- Iteration      1(  11)  ---------------------------------------


    POTLOK:  cpu time      0.1584: real time      0.1585
    SETDIJ:  cpu time      0.6550: real time      0.6550
     EDDAV:  cpu time     35.7965: real time     35.7965
       DOS:  cpu time      0.0014: real time      0.0015
    CHARGE:  cpu time      1.2806: real time      1.2808
    MIXING:  cpu time      0.0060: real time      0.0060
    --------------------------------------------
      LOOP:  cpu time     37.8980: real time     37.8984

 eigenvalue-minimisations  :  7048
 total energy-change (2. order) :-0.2151763E-02  (-0.2184206E-02)
 number of electron     384.0000002 magnetization 
 augmentation part       95.0715875 magnetization 

 Broyden mixing:
  rms(total) = 0.31637E-01    rms(broyden)= 0.31635E-01
  rms(prec ) = 0.34072E-01
  weight for this iteration     100.00

 eigenvalues of (default mixing * dielectric matrix)
  average eigenvalue GAMMA=   1.3827
  2.0603  0.8417  0.8417  1.6848  1.6848  1.1828

 Free energy of the ion-electron system (eV)
  ---------------------------------------------------
  alpha Z        PSCENC =      1411.22415806
  Ewald energy   TEWEN  =    -30043.19675302
  -Hartree energ DENC   =    -11290.23545629
  -exchange      EXHF   =         0.00000000
  -V(xc)+E(xc)   XCENC  =      1258.79951542
  PAW double counting   =     36878.89176750   -36280.25503557
  entropy T*S    EENTRO =        -0.00000000
  eigenvalues    EBANDS =     -2484.76667792
  atomic energy  EATOM  =     40341.65184589
  Solvation  Ediel_sol  =         0.00000000
  ---------------------------------------------------
  free energy    TOTEN  =      -207.88663594 eV

  energy without entropy =     -207.88663594  energy(sigma->0) =     -207.88663594


--------------------------------------------------------------------------------------------------------




--------------------------------------- Iteration      1(  12)  ---------------------------------------


    POTLOK:  cpu time      0.1584: real time      0.1585
    SETDIJ:  cpu time      0.6543: real time      0.6545
     EDDAV:  cpu time     37.6865: real time     37.6946
       DOS:  cpu time      0.0024: real time      0.0026
    CHARGE:  cpu time      1.2822: real time      1.2824
    MIXING:  cpu time      0.0061: real time      0.0061
    --------------------------------------------
      LOOP:  cpu time     39.7900: real time     39.7986

 eigenvalue-minimisations  :  7552
 total energy-change (2. order) :-0.6983688E-03  (-0.7784934E-03)
 number of electron     384.0000002 magnetization 
 augmentation part       95.0457486 magnetization 

 Broyden mixing:
  rms(total) = 0.16446E-01    rms(broyden)= 0.16441E-01
  rms(prec ) = 0.19308E-01
  weight for this iteration     100.00

 eigenvalues of (default mixing * dielectric matrix)
  average eigenvalue GAMMA=   1.3946
  2.4274  2.4274  0.8258  0.8258  1.1357  1.1357  0.9841

 Free energy of the ion-electron system (eV)
  ---------------------------------------------------
  alpha Z        PSCENC =      1411.22415806
  Ewald energy   TEWEN  =    -30043.19675302
  -Hartree energ DENC   =    -11290.91600196
  -exchange      EXHF   =         0.00000000
  -V(xc)+E(xc)   XCENC  =      1258.89438504
  PAW double counting   =     36857.01323471   -36259.07464556
  entropy T*S    EENTRO =        -0.00000000
  eigenvalues    EBANDS =     -2483.48355748
  atomic energy  EATOM  =     40341.65184589
  Solvation  Ediel_sol  =         0.00000000
  ---------------------------------------------------
  free energy    TOTEN  =      -207.88733431 eV

  energy without entropy =     -207.88733431  energy(sigma->0) =     -207.88733431


--------------------------------------------------------------------------------------------------------




--------------------------------------- Iteration      1(  13)  ---------------------------------------


    POTLOK:  cpu time      0.1585: real time      0.1586
    SETDIJ:  cpu time      0.6546: real time      0.6547
     EDDAV:  cpu time     33.6330: real time     33.6540
       DOS:  cpu time      0.0023: real time      0.0024
    CHARGE:  cpu time      1.2781: real time      1.2803
    MIXING:  cpu time      0.0070: real time      0.0070
    --------------------------------------------
      LOOP:  cpu time     35.7335: real time     35.7570

 eigenvalue-minimisations  :  6496
 total energy-change (2. order) : 0.1081380E-03  (-0.8619319E-04)
 number of electron     384.0000002 magnetization 
 augmentation part       95.0463836 magnetization 

 Broyden mixing:
  rms(total) = 0.80488E-02    rms(broyden)= 0.80486E-02
  rms(prec ) = 0.92085E-02
  weight for this iteration     100.00

 eigenvalues of (default mixing * dielectric matrix)
  average eigenvalue GAMMA=   1.4090
  2.6501  2.4965  1.2486  0.9739  0.8367  0.8367  1.1149  1.1149

 Free energy of the ion-electron system (eV)
  ---------------------------------------------------
  alpha Z        PSCENC =      1411.22415806
  Ewald energy   TEWEN  =    -30043.19675302
  -Hartree energ DENC   =    -11290.42978521
  -exchange      EXHF   =         0.00000000
  -V(xc)+E(xc)   XCENC  =      1258.87571340
  PAW double counting   =     36852.75482192   -36255.06207965
  entropy T*S    EENTRO =        -0.00000000
  eigenvalues    EBANDS =     -2483.70514756
  atomic energy  EATOM  =     40341.65184589
  Solvation  Ediel_sol  =         0.00000000
  ---------------------------------------------------
  free energy    TOTEN  =      -207.88722617 eV

  energy without entropy =     -207.88722617  energy(sigma->0) =     -207.88722617


--------------------------------------------------------------------------------------------------------




--------------------------------------- Iteration      1(  14)  ---------------------------------------


    POTLOK:  cpu time      0.1592: real time      0.1593
    SETDIJ:  cpu time      0.6528: real time      0.6531
     EDDAV:  cpu time     35.7384: real time     35.7383
       DOS:  cpu time      0.0028: real time      0.0029
    CHARGE:  cpu time      1.2810: real time      1.2811
    MIXING:  cpu time      0.0067: real time      0.0067
    --------------------------------------------
      LOOP:  cpu time     37.8410: real time     37.8414

 eigenvalue-minimisations  :  7040
 total energy-change (2. order) : 0.3451612E-04  (-0.2613773E-04)
 number of electron     384.0000002 magnetization 
 augmentation part       95.0495583 magnetization 

 Broyden mixing:
  rms(total) = 0.37495E-02    rms(broyden)= 0.37487E-02
  rms(prec ) = 0.43213E-02
  weight for this iteration     100.00

 eigenvalues of (default mixing * dielectric matrix)
  average eigenvalue GAMMA=   1.3818
  2.5798  2.3616  1.7545  1.1827  1.1827  0.8344  0.8344  0.9899  0.7158

 Free energy of the ion-electron system (eV)
  ---------------------------------------------------
  alpha Z        PSCENC =      1411.22415806
  Ewald energy   TEWEN  =    -30043.19675302
  -Hartree energ DENC   =    -11290.39991998
  -exchange      EXHF   =         0.00000000
  -V(xc)+E(xc)   XCENC  =      1258.87076390
  PAW double counting   =     36847.82808899   -36250.14449118
  entropy T*S    EENTRO =        -0.00000000
  eigenvalues    EBANDS =     -2483.72088432
  atomic energy  EATOM  =     40341.65184589
  Solvation  Ediel_sol  =         0.00000000
  ---------------------------------------------------
  free energy    TOTEN  =      -207.88719166 eV

  energy without entropy =     -207.88719166  energy(sigma->0) =     -207.88719166


--------------------------------------------------------------------------------------------------------




--------------------------------------- Iteration      1(  15)  ---------------------------------------


    POTLOK:  cpu time      0.1584: real time      0.1585
    SETDIJ:  cpu time      0.6528: real time      0.6528
     EDDAV:  cpu time     38.1759: real time     38.1755
       DOS:  cpu time      0.0018: real time      0.0020
    CHARGE:  cpu time      1.2796: real time      1.2798
    MIXING:  cpu time      0.0070: real time      0.0070
    --------------------------------------------
      LOOP:  cpu time     40.2756: real time     40.2755

 eigenvalue-minimisations  :  7680
 total energy-change (2. order) : 0.1715924E-04  (-0.7542770E-05)
 number of electron     384.0000002 magnetization 
 augmentation part       95.0519347 magnetization 

 Broyden mixing:
  rms(total) = 0.11733E-02    rms(broyden)= 0.11720E-02
  rms(prec ) = 0.12120E-02
  weight for this iteration     100.00

 eigenvalues of (default mixing * dielectric matrix)
  average eigenvalue GAMMA=   1.3899
  2.6898  2.5344  1.4925  1.4925  1.2642  0.9531  0.8394  0.8394  0.8969  0.8969

 Free energy of the ion-electron system (eV)
  ---------------------------------------------------
  alpha Z        PSCENC =      1411.22415806
  Ewald energy   TEWEN  =    -30043.19675302
  -Hartree energ DENC   =    -11290.30981898
  -exchange      EXHF   =         0.00000000
  -V(xc)+E(xc)   XCENC  =      1258.86289803
  PAW double counting   =     36846.18407757   -36248.47390795
  entropy T*S    EENTRO =        -0.00000000
  eigenvalues    EBANDS =     -2483.82967410
  atomic energy  EATOM  =     40341.65184589
  Solvation  Ediel_sol  =         0.00000000
  ---------------------------------------------------
  free energy    TOTEN  =      -207.88717450 eV

  energy without entropy =     -207.88717450  energy(sigma->0) =     -207.88717450


--------------------------------------------------------------------------------------------------------




--------------------------------------- Iteration      1(  16)  ---------------------------------------


    POTLOK:  cpu time      0.1593: real time      0.1594
    SETDIJ:  cpu time      0.6512: real time      0.6513
     EDDAV:  cpu time     34.7892: real time     34.7888
       DOS:  cpu time      0.0015: real time      0.0016
    CHARGE:  cpu time      1.2808: real time      1.2810
    MIXING:  cpu time      0.0065: real time      0.0065
    --------------------------------------------
[...]
    168       5.0384      2.00000
    169       5.1501      2.00000
    170       5.1536      2.00000
    171       5.1642      2.00000
    172       5.1642      2.00000
    173       5.3363      2.00000
    174       5.3363      2.00000
    175       5.3447      2.00000
    176       5.3447      2.00000
    177       5.5399      2.00000
    178       5.5399      2.00000
    179       5.5473      2.00000
    180       5.5585      2.00000
    181       5.9718      2.00000
    182       5.9997      2.00000
    183       5.9997      2.00000
    184       6.0221      2.00000
    185       6.5669      2.00000
    186       6.5669      2.00000
    187       6.5981      2.00000
    188       6.6225      2.00000
    189       6.6910      2.00000
    190       6.6910      2.00000
    191       6.7101      2.00000
    192       6.7298      2.00000
    193       8.8185      0.00000
    194       8.8529      0.00000
    195       8.8529      0.00000
    196       8.8874      0.00000
    197       9.6213      0.00000
    198       9.6539      0.00000
    199       9.6539      0.00000
    200       9.6852      0.00000
    201       9.9868      0.00000
    202       9.9967      0.00000
    203      10.0167      0.00000
    204      10.0167      0.00000
    205      10.3152      0.00000
    206      10.3355      0.00000
    207      10.3588      0.00000
    208      10.3588      0.00000
    209      10.7126      0.00000
    210      10.7126      0.00000
    211      10.7504      0.00000
    212      10.7803      0.00000
    213      10.7941      0.00000
    214      10.8201      0.00000
    215      10.8201      0.00000
    216      10.8476      0.00000
    217      11.7085      0.00000
    218      11.7085      0.00000
    219      11.7326      0.00000
    220      11.7351      0.00000
    221      11.8387      0.00000
    222      11.8387      0.00000
    223      11.8399      0.00000
    224      11.8567      0.00000
    225      12.3445      0.00000
    226      12.3836      0.00000
    227      12.3836      0.00000
    228      12.4096      0.00000
    229      12.4370      0.00000
    230      12.4370      0.00000
    231      12.5077      0.00000
    232      12.5118      0.00000


--------------------------------------------------------------------------------------------------------


 soft charge-density along one line, spin component           1
         0         1         2         3         4         5         6         7         8         9
 total charge-density along one line
 
 pseudopotential strength for first ion, spin component:           1
-17.135   0.001   0.001   0.001   0.000   3.578  -0.000  -0.000
  0.001 -17.117   0.001  -0.001  -0.001  -0.000   3.570  -0.000
  0.001   0.001 -17.142   0.001   0.000  -0.000  -0.000   3.583
  0.001  -0.001   0.001 -17.117   0.001  -0.000   0.000  -0.000
  0.000  -0.001   0.000   0.001 -17.118  -0.000   0.000  -0.000
  3.578  -0.000  -0.000  -0.000  -0.000   5.982   0.000   0.000
 -0.000   3.570  -0.000   0.000   0.000   0.000   5.984   0.000
 -0.000  -0.000   3.583  -0.000  -0.000   0.000   0.000   5.982
 -0.000   0.000  -0.000   3.570  -0.000   0.000  -0.000   0.000
 -0.000   0.000  -0.000  -0.000   3.569  -0.000  -0.000   0.000
 -0.000   0.000   0.004   0.000   0.000   0.000  -0.000   0.004
  0.000  -0.000  -0.005  -0.000   0.000  -0.000   0.000  -0.004
  0.000  -0.018  -0.000  -0.000  -0.000   0.000   0.004   0.000
 -0.000   0.000  -0.020   0.000   0.000  -0.000   0.000   0.003
  0.000  -0.000  -0.000  -0.018   0.000   0.000  -0.000   0.000
  0.000  -0.029  -0.000  -0.000  -0.000   0.000   0.003   0.000
 -0.000   0.000  -0.032   0.000   0.000  -0.000   0.000   0.000
  0.000  -0.000  -0.000  -0.029   0.000   0.000  -0.000   0.000
 total augmentation occupancy for first ion, spin component:           1
  1.999   0.000   0.000   0.000   0.000  -0.003   0.000   0.000   0.000   0.000  -0.000  -0.000  -0.000  -0.000  -0.000   0.000
  0.000   1.999  -0.000  -0.000  -0.000   0.000  -0.004   0.000  -0.000  -0.000   0.000   0.000   0.036  -0.000  -0.000  -0.013
  0.000  -0.000   2.000  -0.000  -0.000   0.000   0.000  -0.001   0.000   0.000   0.001   0.001   0.000   0.034   0.000  -0.000
  0.000  -0.000  -0.000   1.999   0.000   0.000  -0.000   0.000  -0.004   0.000   0.000   0.000  -0.000  -0.000   0.036   0.000
  0.000  -0.000  -0.000   0.000   1.998   0.000  -0.000   0.000   0.000  -0.006   0.000   0.000   0.000   0.000  -0.000  -0.000
 -0.003   0.000   0.000   0.000   0.000   0.023   0.000   0.000   0.000   0.000  -0.000  -0.000   0.002  -0.002   0.002  -0.000
  0.000  -0.004   0.000  -0.000  -0.000   0.000   0.051   0.000  -0.001  -0.000   0.000   0.001  -0.082   0.000  -0.002   0.012
  0.000   0.000  -0.001   0.000   0.000   0.000   0.000   0.017   0.000  -0.000   0.012  -0.004  -0.001   0.005  -0.001   0.000
  0.000  -0.000   0.000  -0.004   0.000   0.000  -0.001   0.000   0.051   0.000   0.000   0.001  -0.002   0.000  -0.082   0.000
  0.000  -0.000   0.000   0.000  -0.006   0.000  -0.000  -0.000   0.000   0.055   0.000  -0.000   0.000   0.000  -0.000  -0.000
 -0.000   0.000   0.001   0.000   0.000  -0.000   0.000   0.012   0.000   0.000   2.046  -0.024  -0.001   0.176  -0.001  -0.000
 -0.000   0.000   0.001   0.000   0.000  -0.000   0.001  -0.004   0.001  -0.000  -0.024   0.033   0.001  -0.081   0.001  -0.000
 -0.000   0.036   0.000  -0.000   0.000   0.002  -0.082  -0.001  -0.002   0.000  -0.001   0.001   0.923   0.006  -0.006  -0.087
 -0.000  -0.000   0.034  -0.000   0.000  -0.002   0.000   0.005   0.000   0.000   0.176  -0.081   0.006   1.005   0.006  -0.001
 -0.000  -0.000   0.000   0.036  -0.000   0.002  -0.002  -0.001  -0.082  -0.000  -0.001   0.001  -0.006   0.006   0.923   0.001
  0.000  -0.013  -0.000   0.000  -0.000  -0.000   0.012   0.000   0.000  -0.000  -0.000  -0.000  -0.087  -0.001   0.001   0.010
  0.000   0.000  -0.020   0.000  -0.000   0.000   0.000   0.000   0.000   0.000  -0.012   0.008  -0.001  -0.090  -0.001   0.000
  0.000   0.000  -0.000  -0.013   0.000  -0.000   0.000   0.000   0.012   0.000  -0.000  -0.000   0.001  -0.001  -0.087  -0.000


------------------------ aborting loop because EDIFF is reached ----------------------------------------


    CHARGE:  cpu time      1.2828: real time      1.2831
    FORLOC:  cpu time      0.0151: real time      0.0151
    FORNL :  cpu time      8.7447: real time      8.7466
    STRESS:  cpu time     18.9698: real time     18.9791
    FORCOR:  cpu time      0.1608: real time      0.1609
    FORHAR:  cpu time      0.0535: real time      0.0535
    MIXING:  cpu time      0.0047: real time      0.0047
    OFIELD:  cpu time      0.0001: real time      0.0001

  FORCE on cell =-STRESS in cart. coord.  units (eV):
  Direction    XX          YY          ZZ          XY          YZ          ZX
  --------------------------------------------------------------------------------------
  Alpha Z  1411.22416  1411.22416  1411.22416
  Ewald   -8641.98425 -8641.98425-13014.70587     0.00000    -0.00000    -0.00000
  Hartree  5000.19827  5000.19827  1047.54655    -0.00000    -0.00000    -0.00000
  E(xc)   -1831.09461 -1831.09461 -1832.35371     0.00000    -0.00000     0.00000
  Local   -4652.17604 -4652.17604  3686.62709     0.00000    -0.00000    -0.00000
  n-local  1588.76468  1594.93187  1602.04685     0.65331    -0.05772     0.13427
  augment  2176.53052  2176.53052  2160.53717    -0.00000     0.00000     0.00000
  Kinetic  4968.10144  4976.25685  4959.65214    -3.94014     0.46669    -0.60597
  Fock        0.00000     0.00000     0.00000     0.00000     0.00000     0.00000
  -------------------------------------------------------------------------------------
  Total      26.72548    26.72548    20.57437     0.00000     0.00000     0.00000
  in kB      59.81961    59.81961    46.05159     0.00000     0.00000     0.00000
  external pressure =       55.23 kB  Pullay stress =        0.00 kB


 VOLUME and BASIS-vectors are now :
 -----------------------------------------------------------------------------
  energy-cutoff  :      520.00
  volume of cell :      715.80
      direct lattice vectors                 reciprocal lattice vectors
     7.683355868  0.000000000  0.000000000     0.130151462  0.000000000  0.000000000
     0.000000000  7.683355868  0.000000000     0.000000000  0.130151462  0.000000000
     0.000000000  0.000000000 12.125247770     0.000000000  0.000000000  0.082472542

  length of vectors
     7.683355868  7.683355868 12.125247770     0.130151462  0.130151462  0.082472542


 FORCES acting on ions
    electron-ion (+dipol)            ewald-force                    non-local-force                 convergence-correction
 -----------------------------------------------------------------------------------------------
   -.696E+01 -.696E+01 -.426E+03   0.683E+01 0.683E+01 0.437E+03   0.130E+00 0.130E+00 -.113E+02   0.173E-06 0.173E-06 0.915E-07
   0.696E+01 -.696E+01 -.426E+03   -.683E+01 0.683E+01 0.437E+03   -.130E+00 0.130E+00 -.113E+02   -.173E-06 0.173E-06 0.915E-07
   -.696E+01 0.696E+01 -.426E+03   0.683E+01 -.683E+01 0.437E+03   0.130E+00 -.130E+00 -.113E+02   0.173E-06 -.173E-06 0.915E-07
   0.696E+01 0.696E+01 -.426E+03   -.683E+01 -.683E+01 0.437E+03   -.130E+00 -.130E+00 -.113E+02   -.173E-06 -.173E-06 0.915E-07
   0.130E-11 -.194E-11 0.458E+03   0.000E+00 -.568E-13 -.469E+03   -.216E-17 -.804E-19 0.112E+02   -.360E-11 -.830E-12 -.884E-07
   0.727E-12 0.124E-12 0.456E+03   0.114E-12 0.435E-13 -.467E+03   0.117E-17 -.973E-18 0.112E+02   0.309E-11 0.256E-11 0.282E-06
   0.138E-11 0.694E-12 0.456E+03   0.114E-12 -.284E-13 -.467E+03   -.964E-18 0.421E-18 0.112E+02   -.221E-11 -.857E-12 0.282E-06
   0.761E-12 -.237E-11 0.456E+03   0.568E-13 -.415E-13 -.467E+03   -.671E-18 0.124E-18 0.112E+02   0.171E-11 -.160E-11 0.411E-06
   0.137E-11 0.200E-11 -.458E+03   0.000E+00 -.114E-12 0.469E+03   0.350E-18 -.937E-19 -.112E+02   -.292E-11 0.176E-13 0.884E-07
   0.716E-12 -.583E-13 -.456E+03   0.142E-12 0.497E-13 0.467E+03   -.149E-17 -.521E-18 -.112E+02   0.260E-11 -.269E-11 -.282E-06
   0.133E-11 -.194E-11 -.456E+03   0.000E+00 0.284E-13 0.467E+03   0.666E-18 0.342E-18 -.112E+02   0.117E-12 -.247E-11 -.282E-06
   0.716E-12 -.542E-11 -.456E+03   0.000E+00 -.568E-13 0.467E+03   0.106E-17 -.120E-18 -.112E+02   -.406E-12 0.136E-11 -.411E-06
   -.696E+01 -.696E+01 0.426E+03   0.683E+01 0.683E+01 -.437E+03   0.130E+00 0.130E+00 0.113E+02   0.173E-06 0.173E-06 -.915E-07
   0.696E+01 -.696E+01 0.426E+03   -.683E+01 0.683E+01 -.437E+03   -.130E+00 0.130E+00 0.113E+02   -.173E-06 0.173E-06 -.915E-07
   -.696E+01 0.696E+01 0.426E+03   0.683E+01 -.683E+01 -.437E+03   0.130E+00 -.130E+00 0.113E+02   0.173E-06 -.173E-06 -.915E-07
   0.696E+01 0.696E+01 0.426E+03   -.683E+01 -.683E+01 -.437E+03   -.130E+00 -.130E+00 0.113E+02   -.173E-06 -.173E-06 -.915E-07
   0.159E-13 0.226E-13 0.548E-12   0.853E-13 0.711E-13 -.110E-12   0.433E-27 -.475E-27 0.250E-27   -.128E-11 0.128E-11 -.455E-11
   0.780E-13 0.167E-11 0.812E-12   0.114E-12 0.426E-13 -.135E-12   0.822E-27 0.188E-27 -.194E-27   0.859E-12 -.253E-11 -.475E-11
   0.144E-13 -.482E-12 0.410E-12   0.568E-13 0.142E-13 -.178E-12   0.129E-27 -.344E-27 0.533E-27   -.855E-12 -.133E-11 -.458E-11
   -.208E+01 -.208E+01 -.881E-07   0.209E+01 0.209E+01 -.419E-13   -.101E-01 -.101E-01 0.435E-20   -.140E-05 -.140E-05 0.246E-11
   0.208E+01 -.208E+01 0.140E-12   -.209E+01 0.209E+01 -.206E-13   0.101E-01 -.101E-01 -.260E-20   0.140E-05 -.140E-05 0.373E-11
   -.208E+01 0.208E+01 -.937E-12   0.209E+01 -.209E+01 -.170E-13   -.101E-01 0.101E-01 -.166E-19   -.140E-05 0.140E-05 0.246E-11
   0.208E+01 0.208E+01 0.881E-07   -.209E+01 -.209E+01 -.284E-14   0.101E-01 0.101E-01 0.309E-20   0.140E-05 0.140E-05 0.244E-11
   0.510E-12 -.270E+01 0.904E+01   -.284E-13 0.272E+01 -.919E+01   -.152E-18 -.137E-01 0.147E+00   -.192E-11 0.363E-05 -.221E-06
   0.207E-12 -.211E+01 0.367E+01   0.000E+00 0.211E+01 -.353E+01   -.203E-18 -.266E-02 -.140E+00   0.179E-11 0.259E-05 -.222E-06
   0.532E-12 0.270E+01 0.904E+01   -.426E-13 -.272E+01 -.919E+01   0.136E-18 0.137E-01 0.147E+00   -.130E-13 -.363E-05 -.221E-06
   0.177E-12 0.211E+01 0.367E+01   0.284E-13 -.211E+01 -.353E+01   -.444E-18 0.266E-02 -.140E+00   -.103E-12 -.259E-05 -.222E-06
   -.270E+01 0.614E-12 0.904E+01   0.272E+01 -.178E-13 -.919E+01   -.137E-01 0.381E-19 0.147E+00   0.363E-05 0.225E-12 -.221E-06
   0.270E+01 0.159E-11 0.904E+01   -.272E+01 0.142E-13 -.919E+01   0.137E-01 -.804E-19 0.147E+00   -.363E-05 0.162E-11 -.221E-06
   -.211E+01 -.402E-11 0.367E+01   0.211E+01 -.107E-13 -.353E+01   -.266E-02 0.159E-19 -.140E+00   0.259E-05 0.307E-12 -.222E-06
   0.211E+01 0.581E-12 0.367E+01   -.211E+01 -.142E-13 -.353E+01   0.266E-02 0.305E-18 -.140E+00   -.259E-05 -.246E-11 -.222E-06
   -.270E+01 -.157E-11 -.904E+01   0.272E+01 -.497E-13 0.919E+01   -.137E-01 -.644E-20 -.147E+00   0.363E-05 0.756E-12 0.221E-06
   0.270E+01 -.673E-12 -.904E+01   -.272E+01 -.711E-13 0.919E+01   0.137E-01 0.687E-20 -.147E+00   -.363E-05 -.761E-12 0.221E-06
   -.211E+01 -.145E-11 -.367E+01   0.211E+01 0.462E-13 0.353E+01   -.266E-02 -.208E-18 0.140E+00   0.259E-05 -.548E-12 0.222E-06
   0.211E+01 0.731E-11 -.367E+01   -.211E+01 0.284E-13 0.353E+01   0.266E-02 0.233E-18 0.140E+00   -.259E-05 -.103E-11 0.222E-06
   0.495E-12 -.270E+01 -.904E+01   0.142E-13 0.272E+01 0.919E+01   0.383E-18 -.137E-01 -.147E+00   0.654E-12 0.363E-05 0.221E-06
   0.268E-12 -.211E+01 -.367E+01   0.000E+00 0.211E+01 0.353E+01   0.895E-20 -.266E-02 0.140E+00   -.798E-12 0.259E-05 0.222E-06
   0.501E-12 0.270E+01 -.904E+01   0.142E-13 -.272E+01 0.919E+01   0.117E-18 0.137E-01 -.147E+00   0.194E-12 -.363E-05 0.221E-06
   0.261E-12 0.211E+01 -.367E+01   0.426E-13 -.211E+01 0.353E+01   0.640E-18 0.266E-02 0.140E+00   -.352E-12 -.259E-05 0.222E-06
   0.697E-13 -.626E-14 0.689E-12   0.853E-13 -.284E-13 -.156E-12   0.544E-27 0.208E-27 -.147E-26   0.134E-11 0.186E-11 -.276E-11
 -----------------------------------------------------------------------------------------------
   0.253E-10 0.122E-10 -.966E-10   0.568E-13 -.105E-12 0.533E-12   0.263E-16 -.239E-16 -.147E-26   -.184E-11 -.867E-12 0.136E-10
 
 
 POSITION                                       TOTAL-FORCE (eV/Angst)
 -----------------------------------------------------------------------------------
      1.91136      1.91136     10.39229        -0.000002     -0.000002     -0.000003
      5.77199      1.91136     10.39229         0.000002     -0.000002     -0.000003
      1.91136      5.77199     10.39229        -0.000002      0.000002     -0.000003
      5.77199      5.77199     10.39229         0.000002      0.000002     -0.000003
      7.68336      0.00000      7.80649        -0.000000      0.000000     -0.000004
      3.84168      0.00000      7.81700        -0.000000      0.000000     -0.000001
      7.68336      3.84168      7.81700        -0.000000     -0.000000     -0.000001
      3.84168      3.84168      7.82854        -0.000000     -0.000000     -0.000006
      7.68336      0.00000      4.31876        -0.000000     -0.000000      0.000004
      3.84168      0.00000      4.30825        -0.000000     -0.000000      0.000001
      7.68336      3.84168      4.30825        -0.000000     -0.000000      0.000001
      3.84168      3.84168      4.29670        -0.000000     -0.000000      0.000006
      1.91136      1.91136      1.73296        -0.000002     -0.000002      0.000003
      5.77199      1.91136      1.73296         0.000002     -0.000002      0.000003
      1.91136      5.77199      1.73296        -0.000002      0.000002      0.000003
      5.77199      5.77199      1.73296         0.000002      0.000002      0.000003
      3.84168      0.00000      0.00000        -0.000000     -0.000000     -0.000000
      7.68336      3.84168      0.00000        -0.000000     -0.000000     -0.000000
      3.84168      3.84168      0.00000        -0.000000      0.000000     -0.000000
      1.92382      1.92382      6.06262        -0.000003     -0.000003     -0.000000
      5.75953      1.92382      6.06262         0.000003     -0.000003     -0.000000
      1.92382      5.75953      6.06262        -0.000003      0.000003     -0.000000
      5.75953      5.75953      6.06262         0.000003      0.000003     -0.000000
      7.68336      1.91648      9.09777        -0.000000      0.000001      0.000003
      3.84168      1.91750      9.11235        -0.000000     -0.000001      0.000010
      7.68336      5.76688      9.09777        -0.000000     -0.000001      0.000003
      3.84168      5.76585      9.11235        -0.000000      0.000001      0.000010
      1.91648      0.00000      9.09777         0.000001     -0.000000      0.000003
      5.76688      0.00000      9.09777        -0.000001     -0.000000      0.000003
      1.91750      3.84168      9.11235        -0.000001     -0.000000      0.000010
      5.76585      3.84168      9.11235         0.000001     -0.000000      0.000010
      1.91648      0.00000      3.02748         0.000001      0.000000     -0.000003
      5.76688      0.00000      3.02748        -0.000001      0.000000     -0.000003
      1.91750      3.84168      3.01289        -0.000001     -0.000000     -0.000010
      5.76585      3.84168      3.01289         0.000001     -0.000000     -0.000010
      7.68336      1.91648      3.02748        -0.000000      0.000001     -0.000003
      3.84168      1.91750      3.01289        -0.000000     -0.000001     -0.000010
      7.68336      5.76688      3.02748        -0.000000     -0.000001     -0.000003
      3.84168      5.76585      3.01289        -0.000000      0.000001     -0.000010
      7.68336      0.00000      0.00000        -0.000000      0.000000     -0.000000
 -----------------------------------------------------------------------------------
    total drift:                                0.000000      0.000000     -0.000000


--------------------------------------------------------------------------------------------------------



  FREE ENERGIE OF THE ION-ELECTRON SYSTEM (eV)
  ---------------------------------------------------
  free  energy   TOTEN  =      -208.09274285 eV

  energy  without entropy=     -208.09274285  energy(sigma->0) =     -208.09274285
 
 d Force = 0.1019132E-09[-0.539E-11, 0.209E-09]  d Energy = 0.6220944E-09-0.520E-09
 d Force = 0.3625921E-03[ 0.363E-03, 0.363E-03]  d Ewald  = 0.3625920E-03 0.149E-09


--------------------------------------------------------------------------------------------------------


    POTLOK:  cpu time      0.8110: real time      0.8111


--------------------------------------------------------------------------------------------------------




--------------------------------------------------------------------------------------------------------


  
 reached required accuracy - stopping structural energy minimisation
     LOOP+:  cpu time    146.1806: real time    146.2156
    4ORBIT:  cpu time      0.0000: real time      0.0000

 total amount of memory used by VASP MPI-rank0    91043. kBytes
=======================================================================

   base      :      30000. kBytes
   nonl-proj :      16251. kBytes
   fftplans  :      12201. kBytes
   grid      :       7793. kBytes
   one-center:         77. kBytes
   wavefun   :      24721. kBytes
 
  
  
 General timing and accounting informations for this job:
 ========================================================
  
                  Total CPU time used (sec):     7325.107
                            User time (sec):     7299.115
                          System time (sec):       25.992
                         Elapsed time (sec):     7326.758
  
                   Maximum memory used (kb):      213584.
                   Average memory used (kb):          N/A
  
                          Minor page faults:        40478
                          Major page faults:            8
                 Voluntary context switches:          685
