<?xml version="1.0" encoding="ISO-8859-1"?>
<modeling>
 <generator>
  <i name="program" type="string">vasp </i>
  <i name="version" type="string">6.4.3  </i>
  <i name="subversion" type="string">19Mar24 (build Apr 09 2025 20:43:19) complex                          parallel </i>
  <i name="platform" type="string">LinuxIFC </i>
  <i name="date" type="string">2025 04 13 </i>
  <i name="time" type="string">04:16:14 </i>
 </generator>
 <incar>
  <i type="string" name="PREC">Accurate</i>
  <i type="int" name="IALGO">    38</i>
  <i type="logical" name="ADDGRID"> T  </i>
  <i type="int" name="NELMIN">     5</i>
  <i type="int" name="IBRION">     2</i>
  <i name="EDIFF">      0.00000001</i>
  <i name="EDIFFG">     -0.00001000</i>
  <i type="int" name="NSW">   100</i>
  <i type="int" name="ISIF">     2</i>
  <i name="ENCUT">    520.00000000</i>
  <i type="logical" name="LREAL"> F  </i>
  <i type="int" name="ISMEAR">     0</i>
  <i name="SIGMA">      0.05000000</i>
  <i type="logical" name="LWAVE"> F  </i>
  <i type="logical" name="LCHARG"> F  </i>
 </incar>
 <primitive_cell>
  <structure name="primitive_cell" >
   <crystal>
    <varray name="basis" >
     <v>       7.68335587       0.00000000       0.00000000 </v>
     <v>       0.00000000       7.68335587       0.00000000 </v>
     <v>       0.00000000       0.00000000      12.12524777 </v>
    </varray>
    <i name="volume">    715.80136021 </i>
    <varray name="rec_basis" >
     <v>       0.13015146       0.00000000       0.00000000 </v>
     <v>       0.00000000       0.13015146       0.00000000 </v>
     <v>       0.00000000       0.00000000       0.08247254 </v>
    </varray>
   </crystal>
   <varray name="positions" >
    <v>       0.24891108       0.24891108       0.85428186 </v>
    <v>       0.75108892       0.24891108       0.85428186 </v>
    <v>       0.24891108       0.75108892       0.85428186 </v>
    <v>       0.75108892       0.75108892       0.85428186 </v>
    <v>       0.00000000       0.00000000       0.64671764 </v>
    <v>       0.50000000       0.00000000       0.64751587 </v>
    <v>       0.00000000       0.50000000       0.64751587 </v>
    <v>       0.50000000       0.50000000       0.64841730 </v>
    <v>       0.00000000       0.00000000       0.35328236 </v>
    <v>       0.50000000       0.00000000       0.35248413 </v>
    <v>       0.00000000       0.50000000       0.35248413 </v>
    <v>       0.50000000       0.50000000       0.35158270 </v>
    <v>       0.24891108       0.24891108       0.14571814 </v>
    <v>       0.75108892       0.24891108       0.14571814 </v>
    <v>       0.24891108       0.75108892       0.14571814 </v>
    <v>       0.75108892       0.75108892       0.14571814 </v>
    <v>       0.50000000       0.00000000       0.00000000 </v>
    <v>       0.00000000       0.50000000       0.00000000 </v>
    <v>       0.50000000       0.50000000       0.00000000 </v>
    <v>       0.25013764       0.25013764       0.50000000 </v>
    <v>       0.74986236       0.25013764       0.50000000 </v>
    <v>       0.25013764       0.74986236       0.50000000 </v>
    <v>       0.74986236       0.74986236       0.50000000 </v>
    <v>       0.00000000       0.24953518       0.75047350 </v>
    <v>       0.50000000       0.24967019       0.75139378 </v>
    <v>       0.00000000       0.75046482       0.75047350 </v>
    <v>       0.50000000       0.75032981       0.75139378 </v>
    <v>       0.24953518       0.00000000       0.75047350 </v>
    <v>       0.75046482       0.00000000       0.75047350 </v>
    <v>       0.24967019       0.50000000       0.75139378 </v>
    <v>       0.75032981       0.50000000       0.75139378 </v>
    <v>       0.24953518       0.00000000       0.24952650 </v>
    <v>       0.75046482       0.00000000       0.24952650 </v>
    <v>       0.24967019       0.50000000       0.24860622 </v>
    <v>       0.75032981       0.50000000       0.24860622 </v>
    <v>       0.00000000       0.24953518       0.24952650 </v>
    <v>       0.50000000       0.24967019       0.24860622 </v>
    <v>       0.00000000       0.75046482       0.24952650 </v>
    <v>       0.50000000       0.75032981       0.24860622 </v>
    <v>       0.00000000       0.00000000       0.00000000 </v>
   </varray>
  </structure>
  <varray name="primitive_index" >
   <v type="int" >        1 </v>
   <v type="int" >        2 </v>
   <v type="int" >        3 </v>
   <v type="int" >        4 </v>
   <v type="int" >        5 </v>
   <v type="int" >        6 </v>
   <v type="int" >        7 </v>
   <v type="int" >        8 </v>
   <v type="int" >        9 </v>
   <v type="int" >       10 </v>
   <v type="int" >       11 </v>
   <v type="int" >       12 </v>
   <v type="int" >       13 </v>
   <v type="int" >       14 </v>
   <v type="int" >       15 </v>
   <v type="int" >       16 </v>
   <v type="int" >       17 </v>
   <v type="int" >       18 </v>
   <v type="int" >       19 </v>
   <v type="int" >       20 </v>
   <v type="int" >       21 </v>
   <v type="int" >       22 </v>
   <v type="int" >       23 </v>
   <v type="int" >       24 </v>
   <v type="int" >       25 </v>
   <v type="int" >       26 </v>
   <v type="int" >       27 </v>
   <v type="int" >       28 </v>
   <v type="int" >       29 </v>
   <v type="int" >       30 </v>
   <v type="int" >       31 </v>
   <v type="int" >       32 </v>
   <v type="int" >       33 </v>
   <v type="int" >       34 </v>
   <v type="int" >       35 </v>
   <v type="int" >       36 </v>
   <v type="int" >       37 </v>
   <v type="int" >       38 </v>
   <v type="int" >       39 </v>
   <v type="int" >       40 </v>
  </varray>
 </primitive_cell>
 <kpoints>
  <generation param="Gamma">
   <v type="int" name="divisions">       4        4        3 </v>
   <v name="usershift">      0.00000000       0.00000000       0.00000000 </v>
   <v name="genvec1">      0.25000000       0.00000000       0.00000000 </v>
   <v name="genvec2">      0.00000000       0.25000000       0.00000000 </v>
   <v name="genvec3">      0.00000000       0.00000000       0.33333333 </v>
   <v name="shift">      0.00000000       0.00000000       0.00000000 </v>
  </generation>
  <varray name="kpointlist" >
   <v>       0.00000000       0.00000000       0.00000000 </v>
   <v>       0.25000000       0.00000000       0.00000000 </v>
   <v>       0.50000000       0.00000000       0.00000000 </v>
   <v>       0.25000000       0.25000000       0.00000000 </v>
   <v>       0.50000000       0.25000000       0.00000000 </v>
   <v>       0.50000000       0.50000000       0.00000000 </v>
   <v>       0.00000000       0.00000000       0.33333333 </v>
   <v>       0.25000000       0.00000000       0.33333333 </v>
   <v>       0.50000000       0.00000000       0.33333333 </v>
   <v>       0.25000000       0.25000000       0.33333333 </v>
   <v>       0.50000000       0.25000000       0.33333333 </v>
   <v>       0.50000000       0.50000000       0.33333333 </v>
  </varray>
  <varray name="weights" >
   <v>       0.02083333 </v>
   <v>       0.08333333 </v>
   <v>       0.04166667 </v>
   <v>       0.08333333 </v>
   <v>       0.08333333 </v>
   <v>       0.02083333 </v>
   <v>       0.04166667 </v>
   <v>       0.16666667 </v>
   <v>       0.08333333 </v>
   <v>       0.16666667 </v>
   <v>       0.16666667 </v>
   <v>       0.04166667 </v>
  </varray>
 </kpoints>
 <parameters>
  <separator name="general" >
   <i type="string" name="SYSTEM">unknown system</i>
   <i type="logical" name="LCOMPAT"> F  </i>
  </separator>
  <separator name="electronic" >
   <i type="string" name="PREC">accura</i>
   <i name="ENMAX">    520.00000000</i>
   <i name="ENAUG">    605.39200000</i>
   <i name="EDIFF">      0.00000001</i>
   <i type="int" name="IALGO">    38</i>
   <i type="int" name="IWAVPR">    11</i>
   <i type="int" name="NBANDS">   232</i>
   <i type="int" name="NBANDSLOW">    -1</i>
   <i type="int" name="NBANDSHIGH">    -1</i>
   <i name="NELECT">    384.00000000</i>
   <i type="int" name="TURBO">     0</i>
   <i type="int" name="IRESTART">     0</i>
   <i type="int" name="NREBOOT">     0</i>
   <i type="int" name="NMIN">     0</i>
   <i name="EREF">      0.00000000</i>
   <separator name="electronic smearing" >
    <i type="int" name="ISMEAR">     0</i>
    <i name="SIGMA">      0.05000000</i>
    <i name="KSPACING">      0.50000000</i>
    <i type="logical" name="KGAMMA"> T  </i>
    <i type="logical" name="KBLOWUP"> T  </i>
   </separator>
   <separator name="electronic projectors" >
    <i type="logical" name="LREAL"> F  </i>
    <v name="ROPT">      0.00000000      0.00000000      0.00000000      0.00000000</v>
    <i type="int" name="LMAXPAW">  -100</i>
    <i type="int" name="LMAXMIX">     2</i>
    <i type="logical" name="NLSPLINE"> F  </i>
   </separator>
   <separator name="electronic startup" >
    <i type="int" name="ISTART">     0</i>
    <i type="int" name="ICHARG">     2</i>
    <i type="int" name="INIWAV">     1</i>
   </separator>
   <separator name="electronic spin" >
    <i type="int" name="ISPIN">     1</i>
    <i type="logical" name="LNONCOLLINEAR"> F  </i>
    <v name="MAGMOM">      1.00000000      1.00000000      1.00000000      1.00000000      1.00000000      1.00000000      1.00000000      1.00000000      1.00000000      1.00000000      1.00000000      1.00000000      1.00000000      1.00000000      1.00000000      1.00000000      1.00000000      1.00000000      1.00000000      1.00000000
      1.00000000      1.00000000      1.00000000      1.00000000      1.00000000      1.00000000      1.00000000      1.00000000      1.00000000      1.00000000      1.00000000      1.00000000      1.00000000      1.00000000      1.00000000      1.00000000      1.00000000      1.00000000      1.00000000      1.00000000
</v>
    <i name="NUPDOWN">     -1.00000000</i>
    <i type="logical" name="LSORBIT"> F  </i>
    <v name="SAXIS">      0.00000000      0.00000000      1.00000000</v>
    <i type="logical" name="LSPIRAL"> F  </i>
    <v name="QSPIRAL">      0.00000000      0.00000000      0.00000000</v>
    <i type="logical" name="LZEROZ"> F  </i>
   </separator>
   <separator name="electronic exchange-correlation" >
    <i type="logical" name="LASPH"> F  </i>
   </separator>
   <separator name="electronic convergence" >
    <i type="int" name="NELM">    60</i>
    <i type="int" name="NELMDL">    -5</i>
    <i type="int" name="NELMIN">     5</i>
    <i name="ENINI">    520.00000000</i>
    <separator name="electronic convergence detail" >
     <i type="logical" name="LDIAG"> T  </i>
     <i type="logical" name="LSUBROT"> F  </i>
     <i name="WEIMIN">      0.00100000</i>
     <i name="EBREAK">      0.00000000</i>
     <i name="DEPER">      0.30000000</i>
     <i type="int" name="NRMM">     4</i>
     <i name="TIME">      0.40000000</i>
    </separator>
   </separator>
   <separator name="electronic mixer" >
    <i name="AMIX">      0.40000000</i>
    <i name="BMIX">      1.00000000</i>
    <i name="AMIN">      0.10000000</i>
    <i name="AMIX_MAG">      1.60000000</i>
    <i name="BMIX_MAG">      1.00000000</i>
    <separator name="electronic mixer details" >
     <i type="int" name="IMIX">     4</i>
     <i type="logical" name="MIXFIRST"> F  </i>
     <i type="int" name="MAXMIX">   -45</i>
     <i name="WC">    100.00000000</i>
     <i type="int" name="INIMIX">     1</i>
     <i type="int" name="MIXPRE">     1</i>
     <i type="int" name="MREMOVE">     5</i>
    </separator>
   </separator>
   <separator name="electronic dipolcorrection" >
    <i type="logical" name="LDIPOL"> F  </i>
    <i type="logical" name="LMONO"> F  </i>
    <i type="int" name="IDIPOL">     0</i>
    <i name="EPSILON">      1.00000000</i>
    <v name="DIPOL">   -100.00000000   -100.00000000   -100.00000000</v>
    <i name="EFIELD">      0.00000000</i>
    <i type="logical" name="LVACPOTAV"> F  </i>
   </separator>
  </separator>
  <separator name="grids" >
   <i type="int" name="NGX">    60</i>
   <i type="int" name="NGY">    60</i>
   <i type="int" name="NGZ">    90</i>
   <i type="int" name="NGXF">   120</i>
   <i type="int" name="NGYF">   120</i>
   <i type="int" name="NGZF">   180</i>
   <i type="logical" name="ADDGRID"> T  </i>
  </separator>
  <separator name="ionic" >
   <i type="int" name="NSW">   100</i>
   <i type="int" name="IBRION">     2</i>
   <i type="int" name="MDALGO">     0</i>
   <i type="int" name="ISIF">     2</i>
   <i name="PSTRESS">      0.00000000</i>
   <i name="EDIFFG">     -0.00001000</i>
   <i type="int" name="NFREE">     1</i>
   <i name="POTIM">      0.50000000</i>
   <i name="SMASS">     -3.00000000</i>
   <i name="SCALEE">      1.00000000</i>
  </separator>
  <separator name="ionic md" >
   <i name="TEBEG">      0.00010000</i>
   <i name="TEEND">      0.00010000</i>
   <i type="int" name="NBLOCK">     1</i>
   <i type="int" name="KBLOCK">   100</i>
   <i type="int" name="NPACO">   256</i>
   <i name="APACO">     10.00000000</i>
  </separator>
  <separator name="symmetry" >
   <i type="int" name="ISYM">     2</i>
   <i name="SYMPREC">      0.00001000</i>
  </separator>
  <separator name="dos" >
   <i type="int" name="LORBIT">     0</i>
   <v name="RWIGS">     -1.00000000     -1.00000000     -1.00000000     -1.00000000</v>
   <i type="int" name="NEDOS">   301</i>
   <i name="EMIN">     10.00000000</i>
   <i name="EMAX">    -10.00000000</i>
   <i name="EFERMI">      0.00000000</i>
  </separator>
  <separator name="writing" >
   <i type="int" name="NWRITE">     2</i>
   <i type="logical" name="LWAVE"> F  </i>
   <i type="logical" name="LDOWNSAMPLE"> F  </i>
   <i type="logical" name="LCHARG"> F  </i>
   <i type="logical" name="LPARD"> F  </i>
   <i type="logical" name="LVTOT"> F  </i>
   <i type="logical" name="LVHAR"> F  </i>
   <i type="logical" name="LELF"> F  </i>
   <i type="logical" name="LOPTICS"> F  </i>
   <v name="STM">      0.00000000      0.00000000      0.00000000      0.00000000      0.00000000      0.00000000      0.00000000</v>
  </separator>
  <separator name="performance" >
   <i type="int" name="NPAR">     4</i>
   <i type="int" name="NSIM">     4</i>
   <i type="int" name="NBLK">    -1</i>
   <i type="logical" name="LPLANE"> T  </i>
   <i type="logical" name="LSCALAPACK"> T  </i>
   <i type="logical" name="LSCAAWARE"> F  </i>
   <i type="logical" name="LSCALU"> F  </i>
   <i type="logical" name="LASYNC"> F  </i>
   <i type="logical" name="LORBITALREAL"> F  </i>
  </separator>
  <separator name="miscellaneous" >
   <i type="int" name="IDIOT">     3</i>
   <i type="int" name="PHON_NSTRUCT">    -1</i>
   <i type="logical" name="LMUSIC"> F  </i>
   <v name="POMASS">    208.98000000     78.96000000     16.00000000     32.06600000</v>
   <v name="DARWINR">      0.00000000      0.00000000      0.00000000      0.00000000</v>
   <v name="DARWINV">      1.00000000      1.00000000      1.00000000      1.00000000</v>
   <i type="logical" name="LCORR"> T  </i>
  </separator>
  <i type="logical" name="GGA_COMPAT"> T  </i>
  <i type="logical" name="LBERRY"> F  </i>
  <i type="int" name="ICORELEVEL">     0</i>
  <i type="logical" name="LDAU"> F  </i>
  <i type="int" name="I_CONSTRAINED_M">     0</i>
  <separator name="electronic exchange-correlation" >
   <i type="string" name="GGA    ">PE</i>
   <i type="string" name="XC_C">1</i>
   <i type="int" name="VOSKOWN">     0</i>
   <i type="logical" name="LHFCALC"> F  </i>
   <i type="string" name="PRECFOCK"></i>
   <i type="logical" name="LSYMGRAD"> F  </i>
   <i type="logical" name="LHFONE"> F  </i>
   <i type="logical" name="LRHFCALC"> F  </i>
   <i type="logical" name="LTHOMAS"> F  </i>
   <i type="logical" name="LMODELHF"> F  </i>
   <i type="logical" name="LFOCKACE"> F  </i>
   <i name="ENCUT4O">     -1.00000000</i>
   <i type="int" name="EXXOEP">     0</i>
   <i type="int" name="FOURORBIT">     0</i>
   <i name="AEXX">      0.00000000</i>
   <i name="HFALPHA">      0.00000000</i>
   <i name="MCALPHA">      0.00000000</i>
   <i name="ALDAX">      1.00000000</i>
   <i name="AGGAX">      1.00000000</i>
   <i name="AMGGAX">      1.00000000</i>
   <i name="ALDAC">      1.00000000</i>
   <i name="AGGAC">      1.00000000</i>
   <i name="AMGGAC">      1.00000000</i>
   <i type="int" name="NKREDX">     1</i>
   <i type="int" name="NKREDY">     1</i>
   <i type="int" name="NKREDZ">     1</i>
   <i type="logical" name="SHIFTRED"> F  </i>
   <i type="logical" name="ODDONLY"> F  </i>
   <i type="logical" name="EVENONLY"> F  </i>
   <i type="int" name="LMAXFOCK">     0</i>
   <i type="int" name="NMAXFOCKAE">     0</i>
   <i type="logical" name="LFOCKAEDFT"> F  </i>
   <i name="HFSCREEN">      0.00000000</i>
   <i name="HFSCREENC">      0.00000000</i>
   <i type="int" name="NBANDSGWLOW">     0</i>
  </separator>
  <separator name="vdW DFT" >
   <i type="logical" name="LUSE_VDW"> F  </i>
   <i type="int" name="IVDW_NL">    -1</i>
   <i type="logical" name="LSPIN_VDW"> F  </i>
   <i name="ZAB_VDW">     -0.84910000</i>
   <i name="GAMMA_VDW">      1.39626340</i>
   <i name="ALPHA_VDW">      0.00000000</i>
   <i name="PARAM1">      0.12340000</i>
   <i name="PARAM2">      1.00000000</i>
   <i name="BPARAM">      6.30000000</i>
   <i name="CPARAM">      0.00930000</i>
  </separator>
  <separator name="model GW" >
   <i type="int" name="MODEL_GW">     0</i>
   <i name="MODEL_EPS0">     10.73702040</i>
   <i name="MODEL_ALPHA">      1.00000000</i>
  </separator>
  <separator name="linear response parameters" >
   <i type="logical" name="LEPSILON"> F  </i>
   <i type="logical" name="LRPA"> F  </i>
   <i type="logical" name="LNABLA"> F  </i>
   <i type="logical" name="LVEL"> F  </i>
   <i name="CSHIFT">      0.10000000</i>
   <i name="OMEGAMAX">     -1.00000000</i>
   <i name="DEG_THRESHOLD">      0.00200000</i>
   <i name="RTIME">     -0.10000000</i>
   <i name="WPLASMAI">      0.00000000</i>
   <v name="DFIELD">      0.00000000      0.00000000      0.00000000</v>
   <v name="WPLASMA">      0.00000000      0.00000000      0.00000000      0.00000000      0.00000000      0.00000000      0.00000000      0.00000000      0.00000000</v>
  </separator>
  <separator name="orbital magnetization" >
   <i type="logical" name="NUCIND"> F  </i>
   <v name="MAGPOS">      0.00000000      0.00000000      0.00000000</v>
   <i type="logical" name="LNICSALL"> T  </i>
   <i type="logical" name="ORBITALMAG"> F  </i>
   <i type="logical" name="LMAGBLOCH"> F  </i>
   <i type="logical" name="LCHIMAG"> F  </i>
   <i type="logical" name="LGAUGE"> T  </i>
   <i type="int" name="MAGATOM">     0</i>
   <v name="MAGDIPOL">      0.00000000      0.00000000      0.00000000</v>
   <v name="AVECCONST">      0.00000000      0.00000000      0.00000000</v>
  </separator>
  <separator name="response functions" >
   <i type="logical" name="LALL_IN_ONE"> F  </i>
   <i type="int" name="IALL_IN_ONE">    -1</i>
   <i type="int" name="NBANDS_WAVE">    -1</i>
   <i type="logical" name="LFINITE_TEMPERATURE"> F  </i>
   <i type="logical" name="LADDER"> F  </i>
   <i type="logical" name="LRPAFORCE"> F  </i>
   <i type="logical" name="LFXC"> F  </i>
   <i type="logical" name="LHARTREE"> T  </i>
   <i type="int" name="IBSE">     0</i>
   <v type="int" name="KPOINT">    -1     0     0     0</v>
   <i type="logical" name="LTCTC"> F  </i>
   <i type="logical" name="LTCTE"> F  </i>
   <i type="logical" name="LTETE"> F  </i>
   <i type="logical" name="LTRIPLET"> F  </i>
   <i type="logical" name="LFXCEPS"> F  </i>
   <i type="logical" name="LFXHEG"> F  </i>
   <i type="int" name="NATURALO">     2</i>
   <i type="logical" name="LHOLEGF"> F  </i>
   <i type="logical" name="L2ORDER"> F  </i>
   <i type="logical" name="LDMP1"> F  </i>
   <i type="logical" name="LMP2LT"> F  </i>
   <i type="logical" name="LSMP2LT"> F  </i>
   <i type="logical" name="LGWLF"> F  </i>
   <i name="ENCUTGW">     -1.60000002</i>
   <i name="ENCUTGWSOFT">     -1.60000002</i>
   <i name="ENCUTLF">     -1.00000000</i>
   <i type="logical" name="ESF_SPLINES"> F  </i>
   <i name="ESF_CONV">      0.01000000</i>
   <i type="int" name="ESF_NINTER">    15</i>
   <i type="int" name="LMAXMP2">    -1</i>
   <i name="SCISSOR">      0.00000000</i>
   <i type="int" name="NOMEGA">     0</i>
   <i type="int" name="NOMEGAR">     0</i>
   <i type="int" name="NBANDSGW">    -1</i>
   <i type="int" name="NBANDSO">    -1</i>
   <i type="int" name="NBANDSV">    -1</i>
   <i type="int" name="NELMGW">     1</i>
   <i type="int" name="NELMHF">     1</i>
   <i type="int" name="DIM">     3</i>
   <i type="int" name="IESPILON">     4</i>
   <i type="int" name="ANTIRES">     0</i>
   <i name="OMEGAMAX">    -30.00000000</i>
   <i name="OMEGAMIN">    -30.00000000</i>
   <i name="OMEGATL">   -200.00000000</i>
   <i type="int" name="OMEGAGRID">     0</i>
   <i name="CSHIFT">     -0.10000000</i>
   <i type="logical" name="LSELFENERGY"> F  </i>
   <i type="logical" name="LSPECTRAL"> F  </i>
   <i type="logical" name="LSPECTRALGW"> F  </i>
   <i type="logical" name="LSINGLES"> F  </i>
   <i type="logical" name="LFERMIGW"> F  </i>
   <i type="logical" name="ODDONLYGW"> F  </i>
   <i type="logical" name="EVENONLYGW"> F  </i>
   <i type="int" name="NKREDLFX">     1</i>
   <i type="int" name="NKREDLFY">     1</i>
   <i type="int" name="NKREDLFZ">     1</i>
   <i type="int" name="MAXMEM">  2800</i>
   <i type="int" name="TELESCOPE">     0</i>
   <i type="int" name="NTAUPAR">    -1</i>
   <i type="int" name="NOMEGAPAR">    -1</i>
   <i name="DAMP_NEWTON">      0.80000001</i>
   <i name="LAMBDA">      1.00000000</i>
  </separator>
  <separator name="External order field" >
   <i name="OFIELD_KAPPA">      0.00000000</i>
   <v name="OFIELD_K">      0.00000000      0.00000000      0.00000000</v>
   <i name="OFIELD_Q6_NEAR">      0.00000000</i>
   <i name="OFIELD_Q6_FAR">      0.00000000</i>
   <i name="OFIELD_A">      0.00000000</i>
  </separator>
  <separator name="optional k-points parameters" >
   <i type="int" name="KPOINTS_OPT_MODE">     1</i>
   <i type="logical" name="LKPOINTS_OPT"> F  </i>
  </separator>
 </parameters>
 <atominfo>
  <atoms>      40 </atoms>
  <types>       4 </types>
  <array name="atoms" >
   <dimension dim="1">ion</dimension>
   <field type="string">element</field>
   <field type="int">atomtype</field>
   <set>
    <rc><c>Bi</c><c>   1</c></rc>
    <rc><c>Bi</c><c>   1</c></rc>
    <rc><c>Bi</c><c>   1</c></rc>
    <rc><c>Bi</c><c>   1</c></rc>
    <rc><c>Bi</c><c>   1</c></rc>
    <rc><c>Bi</c><c>   1</c></rc>
    <rc><c>Bi</c><c>   1</c></rc>
    <rc><c>Bi</c><c>   1</c></rc>
    <rc><c>Bi</c><c>   1</c></rc>
    <rc><c>Bi</c><c>   1</c></rc>
    <rc><c>Bi</c><c>   1</c></rc>
    <rc><c>Bi</c><c>   1</c></rc>
    <rc><c>Bi</c><c>   1</c></rc>
    <rc><c>Bi</c><c>   1</c></rc>
    <rc><c>Bi</c><c>   1</c></rc>
    <rc><c>Bi</c><c>   1</c></rc>
    <rc><c>Se</c><c>   2</c></rc>
    <rc><c>Se</c><c>   2</c></rc>
    <rc><c>Se</c><c>   2</c></rc>
    <rc><c>Se</c><c>   2</c></rc>
    <rc><c>Se</c><c>   2</c></rc>
    <rc><c>Se</c><c>   2</c></rc>
    <rc><c>Se</c><c>   2</c></rc>
    <rc><c>O </c><c>   3</c></rc>
    <rc><c>O </c><c>   3</c></rc>
    <rc><c>O </c><c>   3</c></rc>
    <rc><c>O </c><c>   3</c></rc>
    <rc><c>O </c><c>   3</c></rc>
    <rc><c>O </c><c>   3</c></rc>
    <rc><c>O </c><c>   3</c></rc>
    <rc><c>O </c><c>   3</c></rc>
    <rc><c>O </c><c>   3</c></rc>
    <rc><c>O </c><c>   3</c></rc>
    <rc><c>O </c><c>   3</c></rc>
    <rc><c>O </c><c>   3</c></rc>
    <rc><c>O </c><c>   3</c></rc>
    <rc><c>O </c><c>   3</c></rc>
    <rc><c>O </c><c>   3</c></rc>
    <rc><c>O </c><c>   3</c></rc>
    <rc><c>S </c><c>   4</c></rc>
   </set>
  </array>
  <array name="atomtypes" >
   <dimension dim="1">type</dimension>
   <field type="int">atomspertype</field>
   <field type="string">element</field>
   <field>mass</field>
   <field>valence</field>
   <field type="string">pseudopotential</field>
   <set>
    <rc><c>  16</c><c>Bi</c><c>    208.98000000</c><c>     15.00000000</c><c>  PAW_PBE Bi_d 06Sep2000                </c></rc>
    <rc><c>   7</c><c>Se</c><c>     78.96000000</c><c>      6.00000000</c><c>  PAW_PBE Se 06Sep2000                  </c></rc>
    <rc><c>  16</c><c>O </c><c>     16.00000000</c><c>      6.00000000</c><c>  PAW_PBE O 08Apr2002                   </c></rc>
    <rc><c>   1</c><c>S </c><c>     32.06600000</c><c>      6.00000000</c><c>  PAW_PBE S 06Sep2000                   </c></rc>
   </set>
  </array>
 </atominfo>
 <structure name="initialpos" >
  <crystal>
   <varray name="basis" >
    <v>       7.68335587       0.00000000       0.00000000 </v>
    <v>       0.00000000       7.68335587       0.00000000 </v>
    <v>       0.00000000       0.00000000      12.12524777 </v>
   </varray>
   <i name="volume">    715.80136021 </i>
   <varray name="rec_basis" >
    <v>       0.13015146       0.00000000       0.00000000 </v>
    <v>       0.00000000       0.13015146       0.00000000 </v>
    <v>       0.00000000       0.00000000       0.08247254 </v>
   </varray>
  </crystal>
  <varray name="positions" >
   <v>       0.24891108       0.24891108       0.85428186 </v>
   <v>       0.75108892       0.24891108       0.85428186 </v>
   <v>       0.24891108       0.75108892       0.85428186 </v>
   <v>       0.75108892       0.75108892       0.85428186 </v>
   <v>       0.00000000       0.00000000       0.64671764 </v>
   <v>       0.50000000       0.00000000       0.64751587 </v>
   <v>       0.00000000       0.50000000       0.64751587 </v>
   <v>       0.50000000       0.50000000       0.64841730 </v>
   <v>       0.00000000       0.00000000       0.35328236 </v>
   <v>       0.50000000       0.00000000       0.35248413 </v>
   <v>       0.00000000       0.50000000       0.35248413 </v>
   <v>       0.50000000       0.50000000       0.35158270 </v>
   <v>       0.24891108       0.24891108       0.14571814 </v>
   <v>       0.75108892       0.24891108       0.14571814 </v>
   <v>       0.24891108       0.75108892       0.14571814 </v>
   <v>       0.75108892       0.75108892       0.14571814 </v>
   <v>       0.50000000       0.00000000       0.00000000 </v>
   <v>       0.00000000       0.50000000       0.00000000 </v>
   <v>       0.50000000       0.50000000       0.00000000 </v>
   <v>       0.25013764       0.25013764       0.50000000 </v>
   <v>       0.74986236       0.25013764       0.50000000 </v>
   <v>       0.25013764       0.74986236       0.50000000 </v>
   <v>       0.74986236       0.74986236       0.50000000 </v>
   <v>       0.00000000       0.24953518       0.75047350 </v>
   <v>       0.50000000       0.24967019       0.75139378 </v>
   <v>       0.00000000       0.75046482       0.75047350 </v>
   <v>       0.50000000       0.75032981       0.75139378 </v>
   <v>       0.24953518       0.00000000       0.75047350 </v>
   <v>       0.75046482       0.00000000       0.75047350 </v>
   <v>       0.24967019       0.50000000       0.75139378 </v>
   <v>       0.75032981       0.50000000       0.75139378 </v>
   <v>       0.24953518       0.00000000       0.24952650 </v>
   <v>       0.75046482       0.00000000       0.24952650 </v>
   <v>       0.24967019       0.50000000       0.24860622 </v>
   <v>       0.75032981       0.50000000       0.24860622 </v>
   <v>       0.00000000       0.24953518       0.24952650 </v>
   <v>       0.50000000       0.24967019       0.24860622 </v>
   <v>       0.00000000       0.75046482       0.24952650 </v>
   <v>       0.50000000       0.75032981       0.24860622 </v>
   <v>       0.00000000       0.00000000       0.00000000 </v>
  </varray>
 </structure>
 <calculation>
  <scstep>
   <time name="dav">   30.12   30.14</time>
   <time name="total">   30.94   30.95</time>
   <energy>
    <i name="alphaZ">   1411.22415806 </i>
    <i name="ewald"> -30043.19675302 </i>
    <i name="hartreedc"> -11115.82030861 </i>
    <i name="XCdc">   1241.01686519 </i>
    <i name="pawpsdc">  34040.00696010 </i>
    <i name="pawaedc"> -33495.80632930 </i>
    <i name="eentropy">     -0.01260268 </i>
    <i name="bandstr">   3431.31680647 </i>
    <i name="atom">  40341.65184589 </i>
    <i name="e_fr_energy">   5810.38064211 </i>
    <i name="e_wo_entrp">   5810.39324480 </i>
    <i name="e_0_energy">   5810.38694345 </i>
   </energy>
  </scstep>
  <scstep>
   <time name="dav">   30.16   30.18</time>
   <time name="total">   30.16   30.18</time>
   <energy>
    <i name="e_fr_energy">   1021.34198711 </i>
    <i name="e_wo_entrp">   1021.35130144 </i>
    <i name="e_0_energy">   1021.34664428 </i>
   </energy>
  </scstep>
  <scstep>
   <time name="dav">   32.50   32.52</time>
   <time name="total">   32.50   32.52</time>
   <energy>
    <i name="e_fr_energy">   -101.84196871 </i>
    <i name="e_wo_entrp">   -101.84196871 </i>
    <i name="e_0_energy">   -101.84196871 </i>
   </energy>
  </scstep>
  <scstep>
   <time name="dav">   34.60   34.63</time>
   <time name="total">   34.60   34.63</time>
   <energy>
    <i name="e_fr_energy">   -235.44116410 </i>
    <i name="e_wo_entrp">   -235.44116410 </i>
    <i name="e_0_energy">   -235.44116410 </i>
   </energy>
  </scstep>
  <scstep>
   <time name="dav">   33.97   33.99</time>
   <time name="total">   35.26   35.28</time>
   <energy>
    <i name="e_fr_energy">   -241.12698247 </i>
    <i name="e_wo_entrp">   -241.12698247 </i>
    <i name="e_0_energy">   -241.12698247 </i>
   </energy>
  </scstep>
  <scstep>
   <time name="dav">   38.46   38.49</time>
   <time name="total">   40.56   40.59</time>
   <energy>
    <i name="e_fr_energy">   -207.36664483 </i>
    <i name="e_wo_entrp">   -207.36664483 </i>
    <i name="e_0_energy">   -207.36664483 </i>
   </energy>
  </scstep>
  <scstep>
   <time name="dav">   32.10   32.13</time>
   <time name="total">   34.20   34.23</time>
   <energy>
    <i name="e_fr_energy">   -207.86736527 </i>
    <i name="e_wo_entrp">   -207.86736527 </i>
    <i name="e_0_energy">   -207.86736527 </i>
   </energy>
  </scstep>
  <scstep>
   <time name="dav">   39.90   39.91</time>
   <time name="total">   42.00   42.01</time>
   <energy>
    <i name="e_fr_energy">   -207.98088287 </i>
    <i name="e_wo_entrp">   -207.98088287 </i>
    <i name="e_0_energy">   -207.98088287 </i>
   </energy>
  </scstep>
  <scstep>
   <time name="dav">   36.91   36.93</time>
   <time name="total">   39.02   39.03</time>
   <energy>
    <i name="e_fr_energy">   -207.89508174 </i>
    <i name="e_wo_entrp">   -207.89508174 </i>
    <i name="e_0_energy">   -207.89508174 </i>
   </energy>
  </scstep>
  <scstep>
   <time name="dav">   35.49   35.49</time>
   <time name="total">   37.59   37.59</time>
   <energy>
    <i name="e_fr_energy">   -207.88448418 </i>
    <i name="e_wo_entrp">   -207.88448418 </i>
    <i name="e_0_energy">   -207.88448418 </i>
   </energy>
  </scstep>
  <scstep>
   <time name="dav">   35.80   35.80</time>
   <time name="total">   37.90   37.90</time>
   <energy>
    <i name="e_fr_energy">   -207.88663594 </i>
    <i name="e_wo_entrp">   -207.88663594 </i>
    <i name="e_0_energy">   -207.88663594 </i>
   </energy>
  </scstep>
  <scstep>
   <time name="dav">   37.69   37.69</time>
   <time name="total">   39.79   39.80</time>
   <energy>
    <i name="e_fr_energy">   -207.88733431 </i>
    <i name="e_wo_entrp">   -207.88733431 </i>
    <i name="e_0_energy">   -207.88733431 </i>
   </energy>
  </scstep>
  <scstep>
   <time name="dav">   33.63   33.65</time>
   <time name="total">   35.73   35.76</time>
   <energy>
    <i name="e_fr_energy">   -207.88722617 </i>
    <i name="e_wo_entrp">   -207.88722617 </i>
    <i name="e_0_energy">   -207.88722617 </i>
   </energy>
  </scstep>
  <scstep>
   <time name="dav">   35.74   35.74</time>
   <time name="total">   37.84   37.84</time>
   <energy>
    <i name="e_fr_energy">   -207.88719166 </i>
    <i name="e_wo_entrp">   -207.88719166 </i>
    <i name="e_0_energy">   -207.88719166 </i>
   </energy>
  </scstep>
  <scstep>
   <time name="dav">   38.18   38.18</time>
   <time name="total">   40.28   40.28</time>
   <energy>
    <i name="e_fr_energy">   -207.88717450 </i>
    <i name="e_wo_entrp">   -207.88717450 </i>
    <i name="e_0_energy">   -207.88717450 </i>
   </energy>
  </scstep>
  <scstep>
   <time name="dav">   34.79   34.79</time>
   <time name="total">   36.89   36.89</time>
   <energy>
    <i name="e_fr_energy">   -207.88717349 </i>
    <i name="e_wo_entrp">   -207.88717349 </i>
    <i name="e_0_energy">   -207.88717349 </i>
   </energy>
  </scstep>
  <scstep>
   <time name="dav">   38.58   38.58</time>
   <time name="total">   40.68   40.68</time>
   <energy>
    <i name="e_fr_energy">   -207.88717259 </i>
    <i name="e_wo_entrp">   -207.88717259 </i>
    <i name="e_0_energy">   -207.88717259 </i>
   </energy>
  </scstep>
  <scstep>
   <time name="dav">   32.40   32.42</time>
   <time name="total">   34.49   34.51</time>
   <energy>
    <i name="e_fr_energy">   -207.88717256 </i>
    <i name="e_wo_entrp">   -207.88717256 </i>
    <i name="e_0_energy">   -207.88717256 </i>
   </energy>
  </scstep>
  <scstep>
   <time name="dav">   34.22   34.22</time>
   <time name="total">   36.32   36.32</time>
   <energy>
    <i name="e_fr_energy">   -207.88717277 </i>
    <i name="e_wo_entrp">   -207.88717277 </i>
    <i name="e_0_energy">   -207.88717277 </i>
   </energy>
  </scstep>
  <scstep>
   <time name="dav">   30.55   30.55</time>
   <time name="total">   32.65   32.65</time>
   <energy>
    <i name="e_fr_energy">   -207.88717308 </i>
    <i name="e_wo_entrp">   -207.88717308 </i>
    <i name="e_0_energy">   -207.88717308 </i>
   </energy>
  </scstep>
  <scstep>
   <time name="dav">   28.18   28.18</time>
   <time name="total">   30.28   30.28</time>
   <energy>
    <i name="e_fr_energy">   -207.88717319 </i>
    <i name="e_wo_entrp">   -207.88717319 </i>
    <i name="e_0_energy">   -207.88717319 </i>
   </energy>
  </scstep>
  <scstep>
   <time name="dav">   21.76   21.77</time>
   <time name="total">   23.87   23.87</time>
   <energy>
    <i name="e_fr_energy">   -207.88717312 </i>
    <i name="e_wo_entrp">   -207.88717312 </i>
    <i name="e_0_energy">   -207.88717312 </i>
   </energy>
  </scstep>
  <scstep>
   <time name="dav">   21.72   21.72</time>
   <time name="total">   23.82   23.82</time>
   <energy>
    <i name="e_fr_energy">   -207.88717309 </i>
    <i name="e_wo_entrp">   -207.88717309 </i>
    <i name="e_0_energy">   -207.88717309 </i>
   </energy>
  </scstep>
  <scstep>
   <time name="dav">   21.64   21.65</time>
   <time name="total">   22.46   22.47</time>
   <energy>
    <i name="alphaZ">   1411.22415806 </i>
    <i name="ewald"> -30043.19675302 </i>
    <i name="hartreedc"> -11290.30284236 </i>
    <i name="XCdc">   1258.86328938 </i>
    <i name="pawpsdc">  36845.59896348 </i>
    <i name="pawaedc"> -36247.88759101 </i>
    <i name="eentropy">     -0.00000000 </i>
    <i name="bandstr">  -2483.83824352 </i>
    <i name="atom">  40341.65184589 </i>
    <i name="e_fr_energy">   -207.88717309 </i>
    <i name="e_wo_entrp">   -207.88717309 </i>
    <i name="e_0_energy">   -207.88717309 </i>
   </energy>
  </scstep>
  <structure>
   <crystal>
    <varray name="basis" >
     <v>       7.68335587       0.00000000       0.00000000 </v>
     <v>       0.00000000       7.68335587       0.00000000 </v>
     <v>       0.00000000       0.00000000      12.12524777 </v>
    </varray>
    <i name="volume">    715.80136021 </i>
    <varray name="rec_basis" >
     <v>       0.13015146       0.00000000       0.00000000 </v>
     <v>       0.00000000       0.13015146       0.00000000 </v>
     <v>       0.00000000       0.00000000       0.08247254 </v>
    </varray>
   </crystal>
   <varray name="positions" >
    <v>       0.24891108       0.24891108       0.85428186 </v>
    <v>       0.75108892       0.24891108       0.85428186 </v>
    <v>       0.24891108       0.75108892       0.85428186 </v>
    <v>       0.75108892       0.75108892       0.85428186 </v>
    <v>       0.00000000       0.00000000       0.64671764 </v>
    <v>       0.50000000       0.00000000       0.64751587 </v>
    <v>       0.00000000       0.50000000       0.64751587 </v>
    <v>       0.50000000       0.50000000       0.64841730 </v>
    <v>       0.00000000       0.00000000       0.35328236 </v>
    <v>       0.50000000       0.00000000       0.35248413 </v>
    <v>       0.00000000       0.50000000       0.35248413 </v>
    <v>       0.50000000       0.50000000       0.35158270 </v>
    <v>       0.24891108       0.24891108       0.14571814 </v>
    <v>       0.75108892       0.24891108       0.14571814 </v>
    <v>       0.24891108       0.75108892       0.14571814 </v>
    <v>       0.75108892       0.75108892       0.14571814 </v>
    <v>       0.50000000       0.00000000       0.00000000 </v>
    <v>       0.00000000       0.50000000       0.00000000 </v>
    <v>       0.50000000       0.50000000       0.00000000 </v>
    <v>       0.25013764       0.25013764       0.50000000 </v>
    <v>       0.74986236       0.25013764       0.50000000 </v>
    <v>       0.25013764       0.74986236       0.50000000 </v>
    <v>       0.74986236       0.74986236       0.50000000 </v>
    <v>       0.00000000       0.24953518       0.75047350 </v>
    <v>       0.50000000       0.24967019       0.75139378 </v>
    <v>       0.00000000       0.75046482       0.75047350 </v>
    <v>       0.50000000       0.75032981       0.75139378 </v>
    <v>       0.24953518       0.00000000       0.75047350 </v>
    <v>       0.75046482       0.00000000       0.75047350 </v>
    <v>       0.24967019       0.50000000       0.75139378 </v>
    <v>       0.75032981       0.50000000       0.75139378 </v>
    <v>       0.24953518       0.00000000       0.24952650 </v>
    <v>       0.75046482       0.00000000       0.24952650 </v>
    <v>       0.24967019       0.50000000       0.24860622 </v>
    <v>       0.75032981       0.50000000       0.24860622 </v>
    <v>       0.00000000       0.24953518       0.24952650 </v>
    <v>       0.50000000       0.24967019       0.24860622 </v>
    <v>       0.00000000       0.75046482       0.24952650 </v>
    <v>       0.50000000       0.75032981       0.24860622 </v>
    <v>       0.00000000       0.00000000       0.00000000 </v>
   </varray>
  </structure>
  <varray name="forces" >
   <v>      -0.00284600      -0.00284600       0.75577296 </v>
   <v>       0.00284600      -0.00284600       0.75577296 </v>
   <v>      -0.00284600       0.00284600       0.75577296 </v>
   <v>       0.00284600       0.00284600       0.75577296 </v>
   <v>      -0.00000000      -0.00000000      -0.75213843 </v>
   <v>       0.00000000      -0.00000000      -0.74993834 </v>
   <v>       0.00000000      -0.00000000      -0.74993834 </v>
   <v>       0.00000000      -0.00000000      -0.75436806 </v>
   <v>       0.00000000      -0.00000000       0.75213843 </v>
   <v>      -0.00000000      -0.00000000       0.74993834 </v>
   <v>      -0.00000000      -0.00000000       0.74993834 </v>
   <v>      -0.00000000      -0.00000000       0.75436806 </v>
   <v>      -0.00284600      -0.00284600      -0.75577296 </v>
   <v>       0.00284600      -0.00284600      -0.75577296 </v>
   <v>      -0.00284600       0.00284600      -0.75577296 </v>
   <v>       0.00284600       0.00284600      -0.75577296 </v>
   <v>      -0.00000000      -0.00000000       0.00000000 </v>
   <v>      -0.00000000      -0.00000000      -0.00000000 </v>
   <v>       0.00000000      -0.00000000       0.00000000 </v>
   <v>       0.00391852       0.00391852      -0.00000000 </v>
   <v>      -0.00391852       0.00391852       0.00000000 </v>
   <v>       0.00391852      -0.00391852      -0.00000000 </v>
   <v>      -0.00391852      -0.00391852      -0.00000000 </v>
   <v>      -0.00000000      -0.00111943      -0.00703435 </v>
   <v>       0.00000000      -0.00086191       0.00722361 </v>
   <v>       0.00000000       0.00111943      -0.00703435 </v>
   <v>       0.00000000       0.00086191       0.00722361 </v>
   <v>      -0.00111943      -0.00000000      -0.00703435 </v>
   <v>       0.00111943      -0.00000000      -0.00703435 </v>
   <v>      -0.00086191      -0.00000000       0.00722361 </v>
   <v>       0.00086191      -0.00000000       0.00722361 </v>
   <v>      -0.00111943      -0.00000000       0.00703435 </v>
   <v>       0.00111943      -0.00000000       0.00703435 </v>
   <v>      -0.00086191      -0.00000000      -0.00722361 </v>
   <v>       0.00086191      -0.00000000      -0.00722361 </v>
   <v>      -0.00000000      -0.00111943       0.00703435 </v>
   <v>      -0.00000000      -0.00086191      -0.00722361 </v>
   <v>       0.00000000       0.00111943       0.00703435 </v>
   <v>       0.00000000       0.00086191      -0.00722361 </v>
   <v>       0.00000000      -0.00000000       0.00000000 </v>
  </varray>
  <varray name="stress" >
   <v>      74.52718617       0.00000000       0.00000000 </v>
   <v>       0.00000000      74.52718617       0.00000000 </v>
   <v>       0.00000000       0.00000000      62.88508893 </v>
  </varray>
  <energy>
   <i name="e_fr_energy">   -207.88717309 </i>
   <i name="e_wo_entrp">   -207.88717309 </i>
   <i name="e_0_energy">   -207.88717309 </i>
  </energy>
  <time name="totalsc">  861.92  862.21</time>
 </calculation>
 <calculation>
  <scstep>
   <time name="dav">   34.68   34.71</time>
   <time name="total">   36.78   36.82</time>
   <energy>
    <i name="alphaZ">   1411.22415806 </i>
    <i name="ewald"> -30314.60679480 </i>
    <i name="hartreedc"> -11033.54756832 </i>
    <i name="XCdc">   1258.01296641 </i>
    <i name="pawpsdc">  36845.60125430 </i>
    <i name="pawaedc"> -36247.88997281 </i>
    <i name="eentropy">     -0.00000000 </i>
    <i name="bandstr">  -2468.09670052 </i>
    <i name="atom">  40341.65184589 </i>
    <i name="e_fr_energy">   -207.65081179 </i>
    <i name="e_wo_entrp">   -207.65081179 </i>
    <i name="e_0_energy">   -207.65081179 </i>
   </energy>
  </scstep>
  <scstep>
   <time name="dav">   39.17   39.20</time>
   <time name="total">   41.27   41.30</time>
   <energy>
    <i name="e_fr_energy">   -208.09864446 </i>
    <i name="e_wo_entrp">   -208.09864446 </i>
    <i name="e_0_energy">   -208.09864446 </i>
   </energy>
  </scstep>
  <scstep>
   <time name="dav">   34.88   34.89</time>
   <time name="total">   36.98   36.99</time>
   <energy>
    <i name="e_fr_energy">   -208.09542617 </i>
    <i name="e_wo_entrp">   -208.09542617 </i>
    <i name="e_0_energy">   -208.09542617 </i>
   </energy>
  </scstep>
  <scstep>
   <time name="dav">   37.22   37.22</time>
   <time name="total">   39.32   39.32</time>
   <energy>
    <i name="e_fr_energy">   -208.09166300 </i>
    <i name="e_wo_entrp">   -208.09166300 </i>
    <i name="e_0_energy">   -208.09166300 </i>
   </energy>
  </scstep>
  <scstep>
   <time name="dav">   38.94   38.96</time>
   <time name="total">   41.04   41.07</time>
   <energy>
    <i name="e_fr_energy">   -208.09160591 </i>
    <i name="e_wo_entrp">   -208.09160591 </i>
    <i name="e_0_energy">   -208.09160591 </i>
   </energy>
  </scstep>
  <scstep>
   <time name="dav">   38.10   38.10</time>
   <time name="total">   40.20   40.20</time>
   <energy>
    <i name="e_fr_energy">   -208.09169469 </i>
    <i name="e_wo_entrp">   -208.09169469 </i>
    <i name="e_0_energy">   -208.09169469 </i>
   </energy>
  </scstep>
  <scstep>
   <time name="dav">   34.37   34.40</time>
   <time name="total">   36.48   36.50</time>
   <energy>
    <i name="e_fr_energy">   -208.09171075 </i>
    <i name="e_wo_entrp">   -208.09171075 </i>
    <i name="e_0_energy">   -208.09171075 </i>
   </energy>
  </scstep>
  <scstep>
   <time name="dav">   35.54   35.54</time>
   <time name="total">   37.64   37.64</time>
   <energy>
    <i name="e_fr_energy">   -208.09171044 </i>
    <i name="e_wo_entrp">   -208.09171044 </i>
    <i name="e_0_energy">   -208.09171044 </i>
   </energy>
  </scstep>
  <scstep>
   <time name="dav">   36.27   36.27</time>
   <time name="total">   38.37   38.37</time>
   <energy>
    <i name="e_fr_energy">   -208.09171265 </i>
    <i name="e_wo_entrp">   -208.09171265 </i>
    <i name="e_0_energy">   -208.09171265 </i>
   </energy>
  </scstep>
  <scstep>
   <time name="dav">   34.13   34.13</time>
   <time name="total">   36.23   36.23</time>
   <energy>
    <i name="e_fr_energy">   -208.09171326 </i>
    <i name="e_wo_entrp">   -208.09171326 </i>
    <i name="e_0_energy">   -208.09171326 </i>
   </energy>
  </scstep>
  <scstep>
   <time name="dav">   29.90   29.90</time>
   <time name="total">   32.00   32.00</time>
   <energy>
    <i name="e_fr_energy">   -208.09171342 </i>
    <i name="e_wo_entrp">   -208.09171342 </i>
    <i name="e_0_energy">   -208.09171342 </i>
   </energy>
  </scstep>
  <scstep>
   <time name="dav">   21.99   22.00</time>
   <time name="total">   22.81   22.81</time>
   <energy>
    <i name="alphaZ">   1411.22415806 </i>
    <i name="ewald"> -30314.60679480 </i>
    <i name="hartreedc"> -11032.65786802 </i>
    <i name="XCdc">   1257.45119048 </i>
    <i name="pawpsdc">  36733.56265524 </i>
    <i name="pawaedc"> -36134.70090133 </i>
    <i name="eentropy">     -0.00000000 </i>
    <i name="bandstr">  -2470.01599894 </i>
    <i name="atom">  40341.65184589 </i>
    <i name="e_fr_energy">   -208.09171342 </i>
    <i name="e_wo_entrp">   -208.09171342 </i>
    <i name="e_0_energy">   -208.09171342 </i>
   </energy>
  </scstep>
  <structure>
   <crystal>
    <varray name="basis" >
     <v>       7.68335587       0.00000000       0.00000000 </v>
     <v>       0.00000000       7.68335587       0.00000000 </v>
     <v>       0.00000000       0.00000000      12.12524777 </v>
    </varray>
    <i name="volume">    715.80136021 </i>
    <varray name="rec_basis" >
     <v>       0.13015146       0.00000000       0.00000000 </v>
     <v>       0.00000000       0.13015146       0.00000000 </v>
     <v>       0.00000000       0.00000000       0.08247254 </v>
    </varray>
   </crystal>
   <varray name="positions" >
    <v>       0.24889321       0.24889321       0.85728885 </v>
    <v>       0.75110679       0.24889321       0.85728885 </v>
    <v>       0.24889321       0.75110679       0.85728885 </v>
    <v>       0.75110679       0.75110679       0.85728885 </v>
    <v>       1.00000000       1.00000000       0.64372511 </v>
    <v>       0.50000000       1.00000000       0.64453209 </v>
    <v>       0.00000000       0.50000000       0.64453209 </v>
    <v>       0.50000000       0.50000000       0.64541590 </v>
    <v>       0.00000000       1.00000000       0.35627489 </v>
    <v>       0.50000000       1.00000000       0.35546791 </v>
    <v>       1.00000000       0.50000000       0.35546791 </v>
    <v>       0.50000000       0.50000000       0.35458410 </v>
    <v>       0.24889321       0.24889321       0.14271115 </v>
    <v>       0.75110679       0.24889321       0.14271115 </v>
    <v>       0.24889321       0.75110679       0.14271115 </v>
    <v>       0.75110679       0.75110679       0.14271115 </v>
    <v>       0.50000000       1.00000000       0.00000000 </v>
    <v>       1.00000000       0.50000000       1.00000000 </v>
    <v>       0.50000000       0.50000000       0.00000000 </v>
    <v>       0.25016224       0.25016224       0.50000000 </v>
    <v>       0.74983776       0.25016224       0.50000000 </v>
    <v>       0.25016224       0.74983776       0.50000000 </v>
    <v>       0.74983776       0.74983776       0.50000000 </v>
    <v>       1.00000000       0.24952815       0.75044551 </v>
    <v>       0.50000000       0.24966477       0.75142252 </v>
    <v>       0.00000000       0.75047185       0.75044551 </v>
    <v>       0.50000000       0.75033523       0.75142252 </v>
    <v>       0.24952815       1.00000000       0.75044551 </v>
    <v>       0.75047185       1.00000000       0.75044551 </v>
    <v>       0.24966477       0.50000000       0.75142252 </v>
    <v>       0.75033523       0.50000000       0.75142252 </v>
    <v>       0.24952815       1.00000000       0.24955449 </v>
    <v>       0.75047185       1.00000000       0.24955449 </v>
    <v>       0.24966477       0.50000000       0.24857748 </v>
    <v>       0.75033523       0.50000000       0.24857748 </v>
    <v>       1.00000000       0.24952815       0.24955449 </v>
    <v>       0.50000000       0.24966477       0.24857748 </v>
    <v>       0.00000000       0.75047185       0.24955449 </v>
    <v>       0.50000000       0.75033523       0.24857748 </v>
    <v>       0.00000000       1.00000000       0.00000000 </v>
   </varray>
  </structure>
  <varray name="forces" >
   <v>      -0.01163178      -0.01163178      -0.05270534 </v>
   <v>       0.01163178      -0.01163178      -0.05270534 </v>
   <v>      -0.01163178       0.01163178      -0.05270534 </v>
   <v>       0.01163178       0.01163178      -0.05270534 </v>
   <v>      -0.00000000       0.00000000       0.05346152 </v>
   <v>      -0.00000000       0.00000000       0.04535058 </v>
   <v>      -0.00000000       0.00000000       0.04535058 </v>
   <v>      -0.00000000       0.00000000       0.03843710 </v>
   <v>      -0.00000000       0.00000000      -0.05346152 </v>
   <v>      -0.00000000       0.00000000      -0.04535058 </v>
   <v>      -0.00000000       0.00000000      -0.04535058 </v>
   <v>      -0.00000000       0.00000000      -0.03843710 </v>
   <v>      -0.01163178      -0.01163178       0.05270534 </v>
   <v>       0.01163178      -0.01163178       0.05270534 </v>
   <v>      -0.01163178       0.01163178       0.05270534 </v>
   <v>       0.01163178       0.01163178       0.05270534 </v>
   <v>      -0.00000000       0.00000000       0.00000000 </v>
   <v>      -0.00000000       0.00000000       0.00000000 </v>
   <v>      -0.00000000       0.00000000       0.00000000 </v>
   <v>       0.00486601       0.00486601       0.00000000 </v>
   <v>      -0.00486601       0.00486601       0.00000000 </v>
   <v>       0.00486601      -0.00486601       0.00000000 </v>
   <v>      -0.00486601      -0.00486601       0.00000000 </v>
   <v>      -0.00000000      -0.00040707      -0.00142380 </v>
   <v>      -0.00000000      -0.00047603       0.00450327 </v>
   <v>      -0.00000000       0.00040707      -0.00142380 </v>
   <v>      -0.00000000       0.00047603       0.00450327 </v>
   <v>      -0.00040707       0.00000000      -0.00142380 </v>
   <v>       0.00040707       0.00000000      -0.00142380 </v>
   <v>      -0.00047603       0.00000000       0.00450327 </v>
   <v>       0.00047603       0.00000000       0.00450327 </v>
   <v>      -0.00040707       0.00000000       0.00142380 </v>
   <v>       0.00040707       0.00000000       0.00142380 </v>
   <v>      -0.00047603       0.00000000      -0.00450327 </v>
   <v>       0.00047603       0.00000000      -0.00450327 </v>
   <v>      -0.00000000      -0.00040707       0.00142380 </v>
   <v>      -0.00000000      -0.00047603      -0.00450327 </v>
   <v>      -0.00000000       0.00040707       0.00142380 </v>
   <v>      -0.00000000       0.00047603      -0.00450327 </v>
   <v>      -0.00000000       0.00000000       0.00000000 </v>
  </varray>
  <varray name="stress" >
   <v>      58.95962456       0.00000000       0.00000000 </v>
   <v>       0.00000000      58.95962456      -0.00000000 </v>
   <v>      -0.00000000       0.00000000      44.95416842 </v>
  </varray>
  <energy>
   <i name="e_fr_energy">   -208.09171342 </i>
   <i name="e_wo_entrp">   -208.09171342 </i>
   <i name="e_0_energy">   -208.09171342 </i>
  </energy>
  <time name="totalsc">  471.49  471.63</time>
 </calculation>
 <calculation>
  <scstep>
   <time name="dav">   34.52   34.54</time>
   <time name="total">   36.63   36.65</time>
   <energy>
    <i name="alphaZ">   1411.22415806 </i>
    <i name="ewald"> -30298.55088524 </i>
    <i name="hartreedc"> -11047.87695387 </i>
    <i name="XCdc">   1257.50023202 </i>
    <i name="pawpsdc">  36733.55599706 </i>
    <i name="pawaedc"> -36134.69414856 </i>
    <i name="eentropy">     -0.00000000 </i>
    <i name="bandstr">  -2470.90161762 </i>
    <i name="atom">  40341.65184589 </i>
    <i name="e_fr_energy">   -208.09137226 </i>
    <i name="e_wo_entrp">   -208.09137226 </i>
    <i name="e_0_energy">   -208.09137226 </i>
   </energy>
  </scstep>
  <scstep>
   <time name="dav">   38.68   38.68</time>
   <time name="total">   40.78   40.79</time>
   <energy>
    <i name="e_fr_energy">   -208.09260861 </i>
    <i name="e_wo_entrp">   -208.09260861 </i>
    <i name="e_0_energy">   -208.09260861 </i>
   </energy>
  </scstep>
  <scstep>
   <time name="dav">   34.34   34.35</time>
   <time name="total">   36.44   36.45</time>
   <energy>
    <i name="e_fr_energy">   -208.09260241 </i>
    <i name="e_wo_entrp">   -208.09260241 </i>
    <i name="e_0_energy">   -208.09260241 </i>
   </energy>
  </scstep>
  <scstep>
   <time name="dav">   37.33   37.34</time>
   <time name="total">   39.43   39.44</time>
   <energy>
    <i name="e_fr_energy">   -208.09259123 </i>
    <i name="e_wo_entrp">   -208.09259123 </i>
    <i name="e_0_energy">   -208.09259123 </i>
   </energy>
  </scstep>
  <scstep>
   <time name="dav">   40.96   40.96</time>
   <time name="total">   43.06   43.06</time>
   <energy>
    <i name="e_fr_energy">   -208.09259040 </i>
    <i name="e_wo_entrp">   -208.09259040 </i>
    <i name="e_0_energy">   -208.09259040 </i>
   </energy>
  </scstep>
  <scstep>
   <time name="dav">   33.52   33.53</time>
   <time name="total">   35.62   35.63</time>
   <energy>
    <i name="e_fr_energy">   -208.09258981 </i>
    <i name="e_wo_entrp">   -208.09258981 </i>
    <i name="e_0_energy">   -208.09258981 </i>
   </energy>
  </scstep>
  <scstep>
   <time name="dav">   38.01   38.01</time>
   <time name="total">   40.11   40.11</time>
   <energy>
    <i name="e_fr_energy">   -208.09258927 </i>
    <i name="e_wo_entrp">   -208.09258927 </i>
    <i name="e_0_energy">   -208.09258927 </i>
   </energy>
  </scstep>
  <scstep>
   <time name="dav">   30.67   30.67</time>
   <time name="total">   32.77   32.77</time>
   <energy>
    <i name="e_fr_energy">   -208.09258913 </i>
    <i name="e_wo_entrp">   -208.09258913 </i>
    <i name="e_0_energy">   -208.09258913 </i>
   </energy>
  </scstep>
  <scstep>
   <time name="dav">   23.16   23.16</time>
   <time name="total">   25.27   25.27</time>
   <energy>
    <i name="e_fr_energy">   -208.09258916 </i>
    <i name="e_wo_entrp">   -208.09258916 </i>
    <i name="e_0_energy">   -208.09258916 </i>
   </energy>
  </scstep>
  <scstep>
   <time name="dav">   21.48   21.49</time>
   <time name="total">   22.30   22.30</time>
   <energy>
    <i name="alphaZ">   1411.22415806 </i>
    <i name="ewald"> -30298.55088524 </i>
    <i name="hartreedc"> -11047.95313757 </i>
    <i name="XCdc">   1257.53597144 </i>
    <i name="pawpsdc">  36740.02810937 </i>
    <i name="pawaedc"> -36141.22877069 </i>
    <i name="eentropy">     -0.00000000 </i>
    <i name="bandstr">  -2470.79988044 </i>
    <i name="atom">  40341.65184589 </i>
    <i name="e_fr_energy">   -208.09258916 </i>
    <i name="e_wo_entrp">   -208.09258916 </i>
    <i name="e_0_energy">   -208.09258916 </i>
   </energy>
  </scstep>
  <structure>
   <crystal>
    <varray name="basis" >
     <v>       7.68335587       0.00000000       0.00000000 </v>
     <v>       0.00000000       7.68335587       0.00000000 </v>
     <v>       0.00000000       0.00000000      12.12524777 </v>
    </varray>
    <i name="volume">    715.80136021 </i>
    <varray name="rec_basis" >
     <v>       0.13015146       0.00000000       0.00000000 </v>
     <v>       0.00000000       0.13015146       0.00000000 </v>
     <v>       0.00000000       0.00000000       0.08247254 </v>
    </varray>
   </crystal>
   <varray name="positions" >
    <v>       0.24889430       0.24889430       0.85710496 </v>
    <v>       0.75110570       0.24889430       0.85710496 </v>
    <v>       0.24889430       0.75110570       0.85710496 </v>
    <v>       0.75110570       0.75110570       0.85710496 </v>
    <v>       0.00000000       0.00000000       0.64390811 </v>
    <v>       0.50000000       0.00000000       0.64471456 </v>
    <v>       0.00000000       0.50000000       0.64471456 </v>
    <v>       0.50000000       0.50000000       0.64559945 </v>
    <v>       0.00000000       0.00000000       0.35609189 </v>
    <v>       0.50000000       0.00000000       0.35528544 </v>
    <v>       0.00000000       0.50000000       0.35528544 </v>
    <v>       0.50000000       0.50000000       0.35440055 </v>
    <v>       0.24889430       0.24889430       0.14289504 </v>
    <v>       0.75110570       0.24889430       0.14289504 </v>
    <v>       0.24889430       0.75110570       0.14289504 </v>
    <v>       0.75110570       0.75110570       0.14289504 </v>
    <v>       0.50000000       0.00000000       0.00000000 </v>
    <v>       0.00000000       0.50000000       0.00000000 </v>
    <v>       0.50000000       0.50000000       0.00000000 </v>
    <v>       0.25016074       0.25016074       0.50000000 </v>
    <v>       0.74983926       0.25016074       0.50000000 </v>
    <v>       0.25016074       0.74983926       0.50000000 </v>
    <v>       0.74983926       0.74983926       0.50000000 </v>
    <v>       0.00000000       0.24952858       0.75044723 </v>
    <v>       0.50000000       0.24966510       0.75142076 </v>
    <v>       0.00000000       0.75047142       0.75044723 </v>
    <v>       0.50000000       0.75033490       0.75142076 </v>
    <v>       0.24952858       0.00000000       0.75044723 </v>
    <v>       0.75047142       0.00000000       0.75044723 </v>
    <v>       0.24966510       0.50000000       0.75142076 </v>
    <v>       0.75033490       0.50000000       0.75142076 </v>
    <v>       0.24952858       0.00000000       0.24955277 </v>
    <v>       0.75047142       0.00000000       0.24955277 </v>
    <v>       0.24966510       0.50000000       0.24857924 </v>
    <v>       0.75033490       0.50000000       0.24857924 </v>
    <v>       0.00000000       0.24952858       0.24955277 </v>
    <v>       0.50000000       0.24966510       0.24857924 </v>
    <v>       0.00000000       0.75047142       0.24955277 </v>
    <v>       0.50000000       0.75033490       0.24857924 </v>
    <v>       0.00000000       0.00000000       0.00000000 </v>
   </varray>
  </structure>
  <varray name="forces" >
   <v>      -0.01110186      -0.01110186      -0.00345948 </v>
   <v>       0.01110186      -0.01110186      -0.00345948 </v>
   <v>      -0.01110186       0.01110186      -0.00345948 </v>
   <v>       0.01110186       0.01110186      -0.00345948 </v>
   <v>      -0.00000000       0.00000000       0.00441849 </v>
   <v>      -0.00000000      -0.00000000      -0.00302847 </v>
   <v>      -0.00000000      -0.00000000      -0.00302847 </v>
   <v>       0.00000000       0.00000000      -0.00977332 </v>
   <v>       0.00000000       0.00000000      -0.00441849 </v>
   <v>       0.00000000       0.00000000       0.00302847 </v>
   <v>       0.00000000      -0.00000000       0.00302847 </v>
   <v>      -0.00000000      -0.00000000       0.00977332 </v>
   <v>      -0.01110186      -0.01110186       0.00345948 </v>
   <v>       0.01110186      -0.01110186       0.00345948 </v>
   <v>      -0.01110186       0.01110186       0.00345948 </v>
   <v>       0.01110186       0.01110186       0.00345948 </v>
   <v>      -0.00000000      -0.00000000      -0.00000000 </v>
   <v>       0.00000000      -0.00000000      -0.00000000 </v>
   <v>       0.00000000       0.00000000      -0.00000000 </v>
   <v>       0.00480949       0.00480949      -0.00000000 </v>
   <v>      -0.00480949       0.00480949      -0.00000000 </v>
   <v>       0.00480949      -0.00480949      -0.00000000 </v>
   <v>      -0.00480949      -0.00480949      -0.00000000 </v>
   <v>       0.00000000      -0.00045657      -0.00175090 </v>
   <v>       0.00000000      -0.00050065       0.00465999 </v>
   <v>      -0.00000000       0.00045657      -0.00175090 </v>
   <v>       0.00000000       0.00050065       0.00465999 </v>
   <v>      -0.00045657       0.00000000      -0.00175090 </v>
   <v>       0.00045657      -0.00000000      -0.00175090 </v>
   <v>      -0.00050065      -0.00000000       0.00465999 </v>
   <v>       0.00050065       0.00000000       0.00465999 </v>
   <v>      -0.00045657       0.00000000       0.00175090 </v>
   <v>       0.00045657      -0.00000000       0.00175090 </v>
   <v>      -0.00050065      -0.00000000      -0.00465999 </v>
   <v>       0.00050065       0.00000000      -0.00465999 </v>
   <v>       0.00000000      -0.00045657       0.00175090 </v>
   <v>       0.00000000      -0.00050065      -0.00465999 </v>
   <v>       0.00000000       0.00045657       0.00175090 </v>
   <v>       0.00000000       0.00050065      -0.00465999 </v>
   <v>       0.00000000       0.00000000      -0.00000000 </v>
  </varray>
  <varray name="stress" >
   <v>      59.83013113       0.00000000       0.00000000 </v>
   <v>       0.00000000      59.83013113       0.00000000 </v>
   <v>       0.00000000      -0.00000000      46.05844630 </v>
  </varray>
  <energy>
   <i name="e_fr_energy">   -208.09258916 </i>
   <i name="e_wo_entrp">   -208.09258916 </i>
   <i name="e_0_energy">   -208.09258916 </i>
  </energy>
  <time name="totalsc">  384.77  384.84</time>
 </calculation>
 <calculation>
  <scstep>
   <time name="dav">   34.59   34.60</time>
   <time name="total">   36.70   36.71</time>
   <energy>
    <i name="alphaZ">   1411.22415806 </i>
    <i name="ewald"> -30298.47748242 </i>
    <i name="hartreedc"> -11048.02351785 </i>
    <i name="XCdc">   1257.53623763 </i>
    <i name="pawpsdc">  36740.03367787 </i>
    <i name="pawaedc"> -36141.23428436 </i>
    <i name="eentropy">     -0.00000000 </i>
    <i name="bandstr">  -2470.80322399 </i>
    <i name="atom">  40341.65184589 </i>
    <i name="e_fr_energy">   -208.09258916 </i>
    <i name="e_wo_entrp">   -208.09258916 </i>
    <i name="e_0_energy">   -208.09258916 </i>
   </energy>
  </scstep>
  <scstep>
   <time name="dav">   36.35   36.37</time>
   <time name="total">   38.44   38.47</time>
   <energy>
    <i name="e_fr_energy">   -208.09258920 </i>
    <i name="e_wo_entrp">   -208.09258920 </i>
    <i name="e_0_energy">   -208.09258920 </i>
   </energy>
  </scstep>
  <scstep>
   <time name="dav">   21.32   21.32</time>
   <time name="total">   23.42   23.42</time>
   <energy>
    <i name="e_fr_energy">   -208.09258920 </i>
    <i name="e_wo_entrp">   -208.09258920 </i>
    <i name="e_0_energy">   -208.09258920 </i>
   </energy>
  </scstep>
  <scstep>
   <time name="dav">   20.92   20.92</time>
   <time name="total">   23.01   23.02</time>
   <energy>
    <i name="e_fr_energy">   -208.09258921 </i>
    <i name="e_wo_entrp">   -208.09258921 </i>
    <i name="e_0_energy">   -208.09258921 </i>
   </energy>
  </scstep>
  <scstep>
   <time name="dav">   20.92   20.92</time>
   <time name="total">   21.74   21.74</time>
   <energy>
    <i name="alphaZ">   1411.22415806 </i>
    <i name="ewald"> -30298.47748242 </i>
    <i name="hartreedc"> -11048.02366296 </i>
    <i name="XCdc">   1257.53639818 </i>
    <i name="pawpsdc">  36740.07457040 </i>
    <i name="pawaedc"> -36141.27541511 </i>
    <i name="eentropy">     -0.00000000 </i>
    <i name="bandstr">  -2470.80300125 </i>
    <i name="atom">  40341.65184589 </i>
    <i name="e_fr_energy">   -208.09258921 </i>
    <i name="e_wo_entrp">   -208.09258921 </i>
    <i name="e_0_energy">   -208.09258921 </i>
   </energy>
  </scstep>
  <structure>
   <crystal>
    <varray name="basis" >
     <v>       7.68335587       0.00000000       0.00000000 </v>
     <v>       0.00000000       7.68335587       0.00000000 </v>
     <v>       0.00000000       0.00000000      12.12524777 </v>
    </varray>
    <i name="volume">    715.80136021 </i>
    <varray name="rec_basis" >
     <v>       0.13015146       0.00000000       0.00000000 </v>
     <v>       0.00000000       0.13015146       0.00000000 </v>
     <v>       0.00000000       0.00000000       0.08247254 </v>
    </varray>
   </crystal>
   <varray name="positions" >
    <v>       0.24889431       0.24889431       0.85710412 </v>
    <v>       0.75110569       0.24889431       0.85710412 </v>
    <v>       0.24889431       0.75110569       0.85710412 </v>
    <v>       0.75110569       0.75110569       0.85710412 </v>
    <v>       0.00000000       0.00000000       0.64390895 </v>
    <v>       0.50000000       0.00000000       0.64471540 </v>
    <v>       0.00000000       0.50000000       0.64471540 </v>
    <v>       0.50000000       0.50000000       0.64560029 </v>
    <v>       0.00000000       0.00000000       0.35609105 </v>
    <v>       0.50000000       0.00000000       0.35528460 </v>
    <v>       0.00000000       0.50000000       0.35528460 </v>
    <v>       0.50000000       0.50000000       0.35439971 </v>
    <v>       0.24889431       0.24889431       0.14289588 </v>
    <v>       0.75110569       0.24889431       0.14289588 </v>
    <v>       0.24889431       0.75110569       0.14289588 </v>
    <v>       0.75110569       0.75110569       0.14289588 </v>
    <v>       0.50000000       0.00000000       0.00000000 </v>
    <v>       0.00000000       0.50000000       0.00000000 </v>
    <v>       0.50000000       0.50000000       0.00000000 </v>
    <v>       0.25016073       0.25016073       0.50000000 </v>
    <v>       0.74983927       0.25016073       0.50000000 </v>
    <v>       0.25016073       0.74983927       0.50000000 </v>
    <v>       0.74983927       0.74983927       0.50000000 </v>
    <v>       0.00000000       0.24952858       0.75044723 </v>
    <v>       0.50000000       0.24966511       0.75142075 </v>
    <v>       0.00000000       0.75047142       0.75044723 </v>
    <v>       0.50000000       0.75033489       0.75142075 </v>
    <v>       0.24952858       0.00000000       0.75044723 </v>
    <v>       0.75047142       0.00000000       0.75044723 </v>
    <v>       0.24966511       0.50000000       0.75142075 </v>
    <v>       0.75033489       0.50000000       0.75142075 </v>
    <v>       0.24952858       0.00000000       0.24955277 </v>
    <v>       0.75047142       0.00000000       0.24955277 </v>
    <v>       0.24966511       0.50000000       0.24857925 </v>
    <v>       0.75033489       0.50000000       0.24857925 </v>
    <v>       0.00000000       0.24952858       0.24955277 </v>
    <v>       0.50000000       0.24966511       0.24857925 </v>
    <v>       0.00000000       0.75047142       0.24955277 </v>
    <v>       0.50000000       0.75033489       0.24857925 </v>
    <v>       0.00000000       0.00000000       0.00000000 </v>
   </varray>
  </structure>
  <varray name="forces" >
   <v>      -0.01109904      -0.01109904      -0.00322245 </v>
   <v>       0.01109904      -0.01109904      -0.00322245 </v>
   <v>      -0.01109904       0.01109904      -0.00322245 </v>
   <v>       0.01109904       0.01109904      -0.00322245 </v>
   <v>      -0.00000000      -0.00000000       0.00418152 </v>
   <v>      -0.00000000      -0.00000000      -0.00326267 </v>
   <v>       0.00000000      -0.00000000      -0.00326267 </v>
   <v>       0.00000000      -0.00000000      -0.01001339 </v>
   <v>       0.00000000      -0.00000000      -0.00418152 </v>
   <v>      -0.00000000       0.00000000       0.00326267 </v>
   <v>      -0.00000000       0.00000000       0.00326267 </v>
   <v>      -0.00000000       0.00000000       0.01001339 </v>
   <v>      -0.01109904      -0.01109904       0.00322245 </v>
   <v>       0.01109904      -0.01109904       0.00322245 </v>
   <v>      -0.01109904       0.01109904       0.00322245 </v>
   <v>       0.01109904       0.01109904       0.00322245 </v>
   <v>      -0.00000000       0.00000000       0.00000000 </v>
   <v>      -0.00000000      -0.00000000       0.00000000 </v>
   <v>      -0.00000000      -0.00000000       0.00000000 </v>
   <v>       0.00480932       0.00480932       0.00000000 </v>
   <v>      -0.00480932       0.00480932       0.00000000 </v>
   <v>       0.00480932      -0.00480932       0.00000000 </v>
   <v>      -0.00480932      -0.00480932       0.00000000 </v>
   <v>      -0.00000000      -0.00045560      -0.00175368 </v>
   <v>       0.00000000      -0.00049989       0.00466199 </v>
   <v>       0.00000000       0.00045560      -0.00175368 </v>
   <v>       0.00000000       0.00049989       0.00466199 </v>
   <v>      -0.00045560       0.00000000      -0.00175368 </v>
   <v>       0.00045560      -0.00000000      -0.00175368 </v>
   <v>      -0.00049989      -0.00000000       0.00466199 </v>
   <v>       0.00049989      -0.00000000       0.00466199 </v>
   <v>      -0.00045560       0.00000000       0.00175368 </v>
   <v>       0.00045560       0.00000000       0.00175368 </v>
   <v>      -0.00049989       0.00000000      -0.00466199 </v>
   <v>       0.00049989      -0.00000000      -0.00466199 </v>
   <v>       0.00000000      -0.00045560       0.00175368 </v>
   <v>       0.00000000      -0.00049989      -0.00466199 </v>
   <v>      -0.00000000       0.00045560       0.00175368 </v>
   <v>       0.00000000       0.00049989      -0.00466199 </v>
   <v>      -0.00000000       0.00000000       0.00000000 </v>
  </varray>
  <varray name="stress" >
   <v>      59.83164544       0.00000000       0.00000000 </v>
   <v>       0.00000000      59.83164544       0.00000000 </v>
   <v>      -0.00000000       0.00000000      46.06096837 </v>
  </varray>
  <energy>
   <i name="e_fr_energy">   -208.09258921 </i>
   <i name="e_wo_entrp">   -208.09258921 </i>
   <i name="e_0_energy">   -208.09258921 </i>
  </energy>
  <time name="totalsc">  175.70  175.74</time>
 </calculation>
 <calculation>
  <scstep>
   <time name="dav">   32.99   32.99</time>
   <time name="total">   35.10   35.10</time>
   <energy>
    <i name="alphaZ">   1411.22415806 </i>
    <i name="ewald"> -30298.51225452 </i>
    <i name="hartreedc"> -11047.99283740 </i>
    <i name="XCdc">   1257.53606215 </i>
    <i name="pawpsdc">  36740.07473567 </i>
    <i name="pawaedc"> -36141.27558021 </i>
    <i name="eentropy">     -0.00000000 </i>
    <i name="bandstr">  -2470.79870575 </i>
    <i name="atom">  40341.65184589 </i>
    <i name="e_fr_energy">   -208.09257610 </i>
    <i name="e_wo_entrp">   -208.09257610 </i>
    <i name="e_0_energy">   -208.09257610 </i>
   </energy>
  </scstep>
  <scstep>
   <time name="dav">   39.62   39.64</time>
   <time name="total">   41.73   41.74</time>
   <energy>
    <i name="e_fr_energy">   -208.09266524 </i>
    <i name="e_wo_entrp">   -208.09266524 </i>
    <i name="e_0_energy">   -208.09266524 </i>
   </energy>
  </scstep>
  <scstep>
   <time name="dav">   33.72   33.72</time>
   <time name="total">   35.82   35.82</time>
   <energy>
    <i name="e_fr_energy">   -208.09266612 </i>
    <i name="e_wo_entrp">   -208.09266612 </i>
    <i name="e_0_energy">   -208.09266612 </i>
   </energy>
  </scstep>
  <scstep>
   <time name="dav">   35.75   35.75</time>
   <time name="total">   37.85   37.85</time>
   <energy>
    <i name="e_fr_energy">   -208.09266509 </i>
    <i name="e_wo_entrp">   -208.09266509 </i>
    <i name="e_0_energy">   -208.09266509 </i>
   </energy>
  </scstep>
  <scstep>
   <time name="dav">   38.56   38.56</time>
   <time name="total">   40.66   40.66</time>
   <energy>
    <i name="e_fr_energy">   -208.09266458 </i>
    <i name="e_wo_entrp">   -208.09266458 </i>
    <i name="e_0_energy">   -208.09266458 </i>
   </energy>
  </scstep>
  <scstep>
   <time name="dav">   36.22   36.22</time>
   <time name="total">   38.32   38.32</time>
   <energy>
    <i name="e_fr_energy">   -208.09266458 </i>
    <i name="e_wo_entrp">   -208.09266458 </i>
    <i name="e_0_energy">   -208.09266458 </i>
   </energy>
  </scstep>
  <scstep>
   <time name="dav">   36.24   36.26</time>
   <time name="total">   38.34   38.37</time>
   <energy>
    <i name="e_fr_energy">   -208.09266460 </i>
    <i name="e_wo_entrp">   -208.09266460 </i>
    <i name="e_0_energy">   -208.09266460 </i>
   </energy>
  </scstep>
  <scstep>
   <time name="dav">   26.12   26.12</time>
   <time name="total">   28.23   28.23</time>
   <energy>
    <i name="e_fr_energy">   -208.09266459 </i>
    <i name="e_wo_entrp">   -208.09266459 </i>
    <i name="e_0_energy">   -208.09266459 </i>
   </energy>
  </scstep>
  <scstep>
   <time name="dav">   27.13   27.13</time>
   <time name="total">   27.94   27.94</time>
   <energy>
    <i name="alphaZ">   1411.22415806 </i>
    <i name="ewald"> -30298.51225452 </i>
    <i name="hartreedc"> -11047.99223301 </i>
    <i name="XCdc">   1257.53599972 </i>
    <i name="pawpsdc">  36740.16223259 </i>
    <i name="pawaedc"> -36141.36269458 </i>
    <i name="eentropy">     -0.00000000 </i>
    <i name="bandstr">  -2470.79971873 </i>
    <i name="atom">  40341.65184589 </i>
    <i name="e_fr_energy">   -208.09266458 </i>
    <i name="e_wo_entrp">   -208.09266458 </i>
    <i name="e_0_energy">   -208.09266458 </i>
   </energy>
  </scstep>
  <structure>
   <crystal>
    <varray name="basis" >
     <v>       7.68335587       0.00000000       0.00000000 </v>
     <v>       0.00000000       7.68335587       0.00000000 </v>
     <v>       0.00000000       0.00000000      12.12524777 </v>
    </varray>
    <i name="volume">    715.80136021 </i>
    <varray name="rec_basis" >
     <v>       0.13015146       0.00000000       0.00000000 </v>
     <v>       0.00000000       0.13015146       0.00000000 </v>
     <v>       0.00000000       0.00000000       0.08247254 </v>
    </varray>
   </crystal>
   <varray name="positions" >
    <v>       0.24882547       0.24882547       0.85709230 </v>
    <v>       0.75117453       0.24882547       0.85709230 </v>
    <v>       0.24882547       0.75117453       0.85709230 </v>
    <v>       0.75117453       0.75117453       0.85709230 </v>
    <v>       1.00000000       0.00000000       0.64392455 </v>
    <v>       0.50000000       0.00000000       0.64470174 </v>
    <v>       0.00000000       0.50000000       0.64470174 </v>
    <v>       0.50000000       0.50000000       0.64556010 </v>
    <v>       0.00000000       0.00000000       0.35607545 </v>
    <v>       0.50000000       0.00000000       0.35529826 </v>
    <v>       1.00000000       0.50000000       0.35529826 </v>
    <v>       0.50000000       0.50000000       0.35443990 </v>
    <v>       0.24882547       0.24882547       0.14290770 </v>
    <v>       0.75117453       0.24882547       0.14290770 </v>
    <v>       0.24882547       0.75117453       0.14290770 </v>
    <v>       0.75117453       0.75117453       0.14290770 </v>
    <v>       0.50000000       0.00000000       0.00000000 </v>
    <v>       1.00000000       0.50000000       0.00000000 </v>
    <v>       0.50000000       0.50000000       0.00000000 </v>
    <v>       0.25019056       0.25019056       0.50000000 </v>
    <v>       0.74980944       0.25019056       0.50000000 </v>
    <v>       0.25019056       0.74980944       0.50000000 </v>
    <v>       0.74980944       0.74980944       0.50000000 </v>
    <v>       1.00000000       0.24952575       0.75044033 </v>
    <v>       0.50000000       0.24966200       0.75143908 </v>
    <v>       0.00000000       0.75047425       0.75044033 </v>
    <v>       0.50000000       0.75033800       0.75143908 </v>
    <v>       0.24952575       0.00000000       0.75044033 </v>
    <v>       0.75047425       0.00000000       0.75044033 </v>
    <v>       0.24966200       0.50000000       0.75143908 </v>
    <v>       0.75033800       0.50000000       0.75143908 </v>
    <v>       0.24952575       0.00000000       0.24955967 </v>
    <v>       0.75047425       0.00000000       0.24955967 </v>
    <v>       0.24966200       0.50000000       0.24856092 </v>
    <v>       0.75033800       0.50000000       0.24856092 </v>
    <v>       0.00000000       0.24952575       0.24955967 </v>
    <v>       0.50000000       0.24966200       0.24856092 </v>
    <v>       1.00000000       0.75047425       0.24955967 </v>
    <v>       0.50000000       0.75033800       0.24856092 </v>
    <v>       1.00000000       0.00000000       0.00000000 </v>
   </varray>
  </structure>
  <varray name="forces" >
   <v>      -0.00147582      -0.00147582       0.00060935 </v>
   <v>       0.00147582      -0.00147582       0.00060935 </v>
   <v>      -0.00147582       0.00147582       0.00060935 </v>
   <v>       0.00147582       0.00147582       0.00060935 </v>
   <v>      -0.00000000      -0.00000000      -0.00119852 </v>
   <v>      -0.00000000      -0.00000000       0.00069621 </v>
   <v>      -0.00000000      -0.00000000       0.00069621 </v>
   <v>      -0.00000000      -0.00000000       0.00277129 </v>
   <v>      -0.00000000      -0.00000000       0.00119852 </v>
   <v>      -0.00000000      -0.00000000      -0.00069621 </v>
   <v>      -0.00000000      -0.00000000      -0.00069621 </v>
   <v>      -0.00000000      -0.00000000      -0.00277129 </v>
   <v>      -0.00147582      -0.00147582      -0.00060935 </v>
   <v>       0.00147582      -0.00147582      -0.00060935 </v>
   <v>      -0.00147582       0.00147582      -0.00060935 </v>
   <v>       0.00147582       0.00147582      -0.00060935 </v>
   <v>      -0.00000000      -0.00000000       0.00000000 </v>
   <v>      -0.00000000      -0.00000000       0.00000000 </v>
   <v>      -0.00000000      -0.00000000      -0.00000000 </v>
   <v>       0.00339716       0.00339716       0.00000000 </v>
   <v>      -0.00339716       0.00339716       0.00000000 </v>
   <v>       0.00339716      -0.00339716      -0.00000000 </v>
   <v>      -0.00339716      -0.00339716       0.00000000 </v>
   <v>      -0.00000000      -0.00220884      -0.00490916 </v>
   <v>      -0.00000000      -0.00228559       0.00162568 </v>
   <v>      -0.00000000       0.00220884      -0.00490916 </v>
   <v>      -0.00000000       0.00228559       0.00162568 </v>
   <v>      -0.00220884      -0.00000000      -0.00490916 </v>
   <v>       0.00220884      -0.00000000      -0.00490916 </v>
   <v>      -0.00228559      -0.00000000       0.00162568 </v>
   <v>       0.00228559      -0.00000000       0.00162568 </v>
   <v>      -0.00220884      -0.00000000       0.00490916 </v>
   <v>       0.00220884      -0.00000000       0.00490916 </v>
   <v>      -0.00228559      -0.00000000      -0.00162568 </v>
   <v>       0.00228559      -0.00000000      -0.00162568 </v>
   <v>      -0.00000000      -0.00220884       0.00490916 </v>
   <v>      -0.00000000      -0.00228559      -0.00162568 </v>
   <v>      -0.00000000       0.00220884       0.00490916 </v>
   <v>      -0.00000000       0.00228559      -0.00162568 </v>
   <v>      -0.00000000      -0.00000000      -0.00000000 </v>
  </varray>
  <varray name="stress" >
   <v>      59.82723514       0.00000000       0.00000000 </v>
   <v>       0.00000000      59.82723514       0.00000000 </v>
   <v>      -0.00000000       0.00000000      46.05559958 </v>
  </varray>
  <energy>
   <i name="e_fr_energy">   -208.09266458 </i>
   <i name="e_wo_entrp">   -208.09266458 </i>
   <i name="e_0_energy">   -208.09266458 </i>
  </energy>
  <time name="totalsc">  356.35  356.40</time>
 </calculation>
 <calculation>
  <scstep>
   <time name="dav">   32.97   32.97</time>
   <time name="total">   35.07   35.07</time>
   <energy>
    <i name="alphaZ">   1411.22415806 </i>
    <i name="ewald"> -30298.51852931 </i>
    <i name="hartreedc"> -11047.98678707 </i>
    <i name="XCdc">   1257.53594118 </i>
    <i name="pawpsdc">  36740.16035115 </i>
    <i name="pawaedc"> -36141.36080196 </i>
    <i name="eentropy">     -0.00000000 </i>
    <i name="bandstr">  -2470.79884118 </i>
    <i name="atom">  40341.65184589 </i>
    <i name="e_fr_energy">   -208.09266322 </i>
    <i name="e_wo_entrp">   -208.09266322 </i>
    <i name="e_0_energy">   -208.09266322 </i>
   </energy>
  </scstep>
  <scstep>
[...]
       <r>    6.7101    1.0000 </r>
       <r>    6.7298    1.0000 </r>
       <r>    8.8185    0.0000 </r>
       <r>    8.8529    0.0000 </r>
       <r>    8.8529    0.0000 </r>
       <r>    8.8874    0.0000 </r>
       <r>    9.6213    0.0000 </r>
       <r>    9.6539    0.0000 </r>
       <r>    9.6539    0.0000 </r>
       <r>    9.6852    0.0000 </r>
       <r>    9.9868    0.0000 </r>
       <r>    9.9967    0.0000 </r>
       <r>   10.0167    0.0000 </r>
       <r>   10.0167    0.0000 </r>
       <r>   10.3152    0.0000 </r>
       <r>   10.3355    0.0000 </r>
       <r>   10.3588    0.0000 </r>
       <r>   10.3588    0.0000 </r>
       <r>   10.7126    0.0000 </r>
       <r>   10.7126    0.0000 </r>
       <r>   10.7504    0.0000 </r>
       <r>   10.7803    0.0000 </r>
       <r>   10.7941    0.0000 </r>
       <r>   10.8201    0.0000 </r>
       <r>   10.8201    0.0000 </r>
       <r>   10.8476    0.0000 </r>
       <r>   11.7085    0.0000 </r>
       <r>   11.7085    0.0000 </r>
       <r>   11.7326    0.0000 </r>
       <r>   11.7351    0.0000 </r>
       <r>   11.8387    0.0000 </r>
       <r>   11.8387    0.0000 </r>
       <r>   11.8399    0.0000 </r>
       <r>   11.8567    0.0000 </r>
       <r>   12.3445    0.0000 </r>
       <r>   12.3836    0.0000 </r>
       <r>   12.3836    0.0000 </r>
       <r>   12.4096    0.0000 </r>
       <r>   12.4370    0.0000 </r>
       <r>   12.4370    0.0000 </r>
       <r>   12.5077    0.0000 </r>
       <r>   12.5118    0.0000 </r>
      </set>
     </set>
    </set>
   </array>
  </eigenvalues>
  <separator name="orbital magnetization" >
   <v name="MAGDIPOLOUT">      0.00000000      0.00000000      0.00000000</v>
  </separator>
  <dos>
   <i name="efermi">      7.20140422 </i>
   <total>
    <array>
     <dimension dim="1">gridpoints</dimension>
     <dimension dim="2">spin</dimension>
     <field>energy</field>
     <field>total</field>
     <field>integrated</field>
     <set>
      <set comment="spin 1">
       <r>   -17.4615     0.0000     0.0000 </r>
       <r>   -17.3557     0.0000     0.0000 </r>
       <r>   -17.2499     0.0000     0.0000 </r>
       <r>   -17.1441     0.0000     0.0000 </r>
       <r>   -17.0382     0.0000     0.0000 </r>
       <r>   -16.9324     0.0000     0.0000 </r>
       <r>   -16.8266     0.0000     0.0000 </r>
       <r>   -16.7208     0.0000     0.0000 </r>
       <r>   -16.6149     0.0000     0.0000 </r>
       <r>   -16.5091     0.0000     0.0000 </r>
       <r>   -16.4033     0.0000     0.0000 </r>
       <r>   -16.2975     0.0000     0.0000 </r>
       <r>   -16.1917     0.0000     0.0000 </r>
       <r>   -16.0858     0.8973     0.0949 </r>
       <r>   -15.9800   109.4153    11.6734 </r>
       <r>   -15.8742   149.5120    27.4949 </r>
       <r>   -15.7684   558.7548    86.6229 </r>
       <r>   -15.6626   675.2664   158.0803 </r>
       <r>   -15.5567    18.1400   159.9999 </r>
       <r>   -15.4509     0.0005   160.0000 </r>
       <r>   -15.3451     0.0000   160.0000 </r>
       <r>   -15.2393     0.0000   160.0000 </r>
       <r>   -15.1335     0.0000   160.0000 </r>
       <r>   -15.0276     0.0000   160.0000 </r>
       <r>   -14.9218     0.0000   160.0000 </r>
       <r>   -14.8160     0.0000   160.0000 </r>
       <r>   -14.7102     0.0000   160.0000 </r>
       <r>   -14.6043     0.0000   160.0000 </r>
       <r>   -14.4985     0.0000   160.0000 </r>
       <r>   -14.3927     0.0000   160.0000 </r>
       <r>   -14.2869     0.0000   160.0000 </r>
       <r>   -14.1811     0.0000   160.0000 </r>
       <r>   -14.0752     0.0000   160.0000 </r>
       <r>   -13.9694     0.0000   160.0000 </r>
       <r>   -13.8636     0.0000   160.0000 </r>
       <r>   -13.7578     0.0000   160.0000 </r>
       <r>   -13.6520     0.0000   160.0000 </r>
       <r>   -13.5461     0.0000   160.0000 </r>
       <r>   -13.4403     0.0000   160.0000 </r>
       <r>   -13.3345     0.0000   160.0000 </r>
       <r>   -13.2287     0.0000   160.0000 </r>
       <r>   -13.1229     0.0000   160.0000 </r>
       <r>   -13.0170     0.0000   160.0000 </r>
       <r>   -12.9112     0.0000   160.0000 </r>
       <r>   -12.8054     0.0000   160.0000 </r>
       <r>   -12.6996     0.0044   160.0005 </r>
       <r>   -12.5937     1.2084   160.1283 </r>
       <r>   -12.4879     5.0756   160.6655 </r>
       <r>   -12.3821     8.9965   161.6175 </r>
       <r>   -12.2763     5.9415   162.2462 </r>
       <r>   -12.1705     3.6609   162.6336 </r>
       <r>   -12.0646    14.5248   164.1706 </r>
       <r>   -11.9588    10.1320   165.2428 </r>
       <r>   -11.8530     0.5624   165.3023 </r>
       <r>   -11.7472     8.0220   166.1512 </r>
       <r>   -11.6414    13.1631   167.5442 </r>
       <r>   -11.5355    15.7692   169.2129 </r>
       <r>   -11.4297     4.1019   169.6469 </r>
       <r>   -11.3239    14.6974   171.2022 </r>
       <r>   -11.2181     0.7633   171.2830 </r>
       <r>   -11.1123    19.7720   173.3753 </r>
       <r>   -11.0064    21.5970   175.6607 </r>
       <r>   -10.9006    15.5927   177.3108 </r>
       <r>   -10.7948    18.5070   179.2692 </r>
       <r>   -10.6890    10.2262   180.3513 </r>
       <r>   -10.5831    45.8361   185.2018 </r>
       <r>   -10.4773     5.2616   185.7586 </r>
       <r>   -10.3715     6.7337   186.4711 </r>
       <r>   -10.2657    19.9218   188.5793 </r>
       <r>   -10.1599    11.2918   189.7742 </r>
       <r>   -10.0540    10.4835   190.8836 </r>
       <r>    -9.9482     9.6431   191.9040 </r>
       <r>    -9.8424     0.9063   191.9999 </r>
       <r>    -9.7366     0.0009   192.0000 </r>
       <r>    -9.6308     0.0000   192.0000 </r>
       <r>    -9.5249     0.0000   192.0000 </r>
       <r>    -9.4191     0.0000   192.0000 </r>
       <r>    -9.3133     0.0000   192.0000 </r>
       <r>    -9.2075     0.0000   192.0000 </r>
       <r>    -9.1017     0.0000   192.0000 </r>
       <r>    -8.9958     0.0000   192.0000 </r>
       <r>    -8.8900     0.0000   192.0000 </r>
       <r>    -8.7842     0.0000   192.0000 </r>
       <r>    -8.6784     0.0000   192.0000 </r>
       <r>    -8.5725     0.0000   192.0000 </r>
       <r>    -8.4667     0.0000   192.0000 </r>
       <r>    -8.3609     0.0000   192.0000 </r>
       <r>    -8.2551     0.0000   192.0000 </r>
       <r>    -8.1493     0.0000   192.0000 </r>
       <r>    -8.0434     0.0000   192.0000 </r>
       <r>    -7.9376     0.0000   192.0000 </r>
       <r>    -7.8318     0.0000   192.0000 </r>
       <r>    -7.7260     0.0000   192.0000 </r>
       <r>    -7.6202     0.0000   192.0000 </r>
       <r>    -7.5143     0.0000   192.0000 </r>
       <r>    -7.4085     0.0000   192.0000 </r>
       <r>    -7.3027     0.0000   192.0000 </r>
       <r>    -7.1969     0.0000   192.0000 </r>
       <r>    -7.0911     0.0000   192.0000 </r>
       <r>    -6.9852     0.0000   192.0000 </r>
       <r>    -6.8794     0.0000   192.0000 </r>
       <r>    -6.7736     0.0000   192.0000 </r>
       <r>    -6.6678     0.0000   192.0000 </r>
       <r>    -6.5619     0.0000   192.0000 </r>
       <r>    -6.4561     0.0000   192.0000 </r>
       <r>    -6.3503     0.0000   192.0000 </r>
       <r>    -6.2445     0.0000   192.0000 </r>
       <r>    -6.1387     0.0886   192.0094 </r>
       <r>    -6.0328     0.5833   192.0711 </r>
       <r>    -5.9270     2.3205   192.3167 </r>
       <r>    -5.8212     4.3056   192.7723 </r>
       <r>    -5.7154     3.2934   193.1208 </r>
       <r>    -5.6096     2.8454   193.4219 </r>
       <r>    -5.5037     8.2238   194.2922 </r>
       <r>    -5.3979     9.8065   195.3299 </r>
       <r>    -5.2921     4.6368   195.8206 </r>
       <r>    -5.1863     7.0091   196.5623 </r>
       <r>    -5.0805     8.1039   197.4198 </r>
       <r>    -4.9746     9.1818   198.3915 </r>
       <r>    -4.8688     9.9875   199.4484 </r>
       <r>    -4.7630     8.8322   200.3830 </r>
       <r>    -4.6572    12.8415   201.7419 </r>
       <r>    -4.5513    12.1306   203.0256 </r>
       <r>    -4.4455     8.7085   203.9471 </r>
       <r>    -4.3397    16.7845   205.7232 </r>
       <r>    -4.2339     7.0117   206.4652 </r>
       <r>    -4.1281     7.0868   207.2152 </r>
       <r>    -4.0222     6.6130   207.9150 </r>
       <r>    -3.9164    10.3250   209.0076 </r>
       <r>    -3.8106    11.1175   210.1840 </r>
       <r>    -3.7048    18.6995   212.1628 </r>
       <r>    -3.5990    27.7967   215.1043 </r>
       <r>    -3.4931    42.3630   219.5872 </r>
       <r>    -3.3873    26.0786   222.3469 </r>
       <r>    -3.2815     9.9774   223.4027 </r>
       <r>    -3.1757    18.6226   225.3733 </r>
       <r>    -3.0699     9.1390   226.3404 </r>
       <r>    -2.9640    13.5054   227.7696 </r>
       <r>    -2.8582    14.3466   229.2878 </r>
       <r>    -2.7524    15.1342   230.8893 </r>
       <r>    -2.6466    10.0038   231.9479 </r>
       <r>    -2.5407     2.6896   232.2325 </r>
       <r>    -2.4349     6.0784   232.8758 </r>
       <r>    -2.3291     9.7670   233.9093 </r>
       <r>    -2.2233     5.9339   234.5372 </r>
       <r>    -2.1175     2.0034   234.7492 </r>
       <r>    -2.0116     0.0972   234.7595 </r>
       <r>    -1.9058     8.5779   235.6672 </r>
       <r>    -1.8000    11.7739   236.9132 </r>
       <r>    -1.6942     7.4793   237.7046 </r>
       <r>    -1.5884     0.6729   237.7758 </r>
       <r>    -1.4825     2.1120   237.9993 </r>
       <r>    -1.3767     4.0812   238.4312 </r>
       <r>    -1.2709     3.4182   238.7929 </r>
       <r>    -1.1651     4.4163   239.2603 </r>
       <r>    -1.0593     1.3406   239.4021 </r>
       <r>    -0.9534     3.0996   239.7301 </r>
       <r>    -0.8476     1.3416   239.8721 </r>
       <r>    -0.7418     0.2006   239.8933 </r>
       <r>    -0.6360     0.6218   239.9591 </r>
       <r>    -0.5301     0.3482   239.9960 </r>
       <r>    -0.4243     0.0381   240.0000 </r>
       <r>    -0.3185     0.0000   240.0000 </r>
       <r>    -0.2127     0.0000   240.0000 </r>
       <r>    -0.1069     0.0000   240.0000 </r>
       <r>    -0.0010     0.0000   240.0000 </r>
       <r>     0.1048     0.0000   240.0000 </r>
       <r>     0.2106     0.0000   240.0000 </r>
       <r>     0.3164     0.0000   240.0000 </r>
       <r>     0.4222     0.0000   240.0000 </r>
       <r>     0.5281     0.0000   240.0000 </r>
       <r>     0.6339     0.0000   240.0000 </r>
       <r>     0.7397     0.0000   240.0000 </r>
       <r>     0.8455     0.0083   240.0009 </r>
       <r>     0.9513     1.0475   240.1117 </r>
       <r>     1.0572     3.7116   240.5045 </r>
       <r>     1.1630    22.3075   242.8651 </r>
       <r>     1.2688    29.8565   246.0245 </r>
       <r>     1.3746    22.4155   248.3966 </r>
       <r>     1.4805    18.7165   250.3772 </r>
       <r>     1.5863    30.0575   253.5579 </r>
       <r>     1.6921    21.7152   255.8558 </r>
       <r>     1.7979    21.7301   258.1553 </r>
       <r>     1.9037    25.2677   260.8292 </r>
       <r>     2.0096    20.3020   262.9776 </r>
       <r>     2.1154    13.4272   264.3984 </r>
       <r>     2.2212    13.9015   265.8695 </r>
       <r>     2.3270    17.0600   267.6748 </r>
       <r>     2.4328    26.0185   270.4281 </r>
       <r>     2.5387    28.4352   273.4372 </r>
       <r>     2.6445    15.4382   275.0708 </r>
       <r>     2.7503    26.8618   277.9134 </r>
       <r>     2.8561    26.1613   280.6818 </r>
       <r>     2.9619    29.3196   283.7844 </r>
       <r>     3.0678    27.0720   286.6492 </r>
       <r>     3.1736    21.9655   288.9736 </r>
       <r>     3.2794    17.3636   290.8111 </r>
       <r>     3.3852    12.8859   292.1747 </r>
       <r>     3.4911    29.9848   295.3477 </r>
       <r>     3.5969    36.9196   299.2546 </r>
       <r>     3.7027    28.3284   302.2523 </r>
       <r>     3.8085    17.1098   304.0629 </r>
       <r>     3.9143    25.1970   306.7293 </r>
       <r>     4.0202    14.3134   308.2439 </r>
       <r>     4.1260    22.8619   310.6632 </r>
       <r>     4.2318    21.5808   312.9469 </r>
       <r>     4.3376    17.5146   314.8003 </r>
       <r>     4.4434    21.5773   317.0836 </r>
       <r>     4.5493    37.3727   321.0385 </r>
       <r>     4.6551    32.1437   324.4399 </r>
       <r>     4.7609    20.9829   326.6604 </r>
       <r>     4.8667    30.9901   329.9398 </r>
       <r>     4.9725    34.9294   333.6360 </r>
       <r>     5.0784    27.2809   336.5229 </r>
       <r>     5.1842    27.4058   339.4230 </r>
       <r>     5.2900    32.7255   342.8861 </r>
       <r>     5.3958    21.4072   345.1514 </r>
       <r>     5.5017    15.6617   346.8088 </r>
       <r>     5.6075     4.6903   347.3051 </r>
       <r>     5.7133    33.2856   350.8274 </r>
       <r>     5.8191    40.5461   355.1180 </r>
       <r>     5.9249    32.3795   358.5445 </r>
       <r>     6.0308    42.7536   363.0687 </r>
       <r>     6.1366    36.5482   366.9363 </r>
       <r>     6.2424    30.3703   370.1501 </r>
       <r>     6.3482    23.1770   372.6027 </r>
       <r>     6.4540    21.5060   374.8785 </r>
       <r>     6.5599     9.8752   375.9235 </r>
       <r>     6.6657    22.3877   378.2926 </r>
       <r>     6.7715    27.8116   381.2356 </r>
       <r>     6.8773    22.8578   383.6545 </r>
       <r>     6.9831     3.1873   383.9918 </r>
       <r>     7.0890     0.0778   384.0000 </r>
       <r>     7.1948     0.0000   384.0000 </r>
       <r>     7.3006     0.0000   384.0000 </r>
       <r>     7.4064     0.0000   384.0000 </r>
       <r>     7.5123     0.0326   384.0035 </r>
       <r>     7.6181     0.3399   384.0394 </r>
       <r>     7.7239     0.0217   384.0417 </r>
       <r>     7.8297     0.3272   384.0763 </r>
       <r>     7.9355     1.1314   384.1961 </r>
       <r>     8.0414     0.1160   384.2083 </r>
       <r>     8.1472     0.0025   384.2086 </r>
       <r>     8.2530     0.4799   384.2594 </r>
       <r>     8.3588     1.5369   384.4220 </r>
       <r>     8.4646     3.2488   384.7658 </r>
       <r>     8.5705     6.1695   385.4187 </r>
       <r>     8.6763     2.3386   385.6661 </r>
       <r>     8.7821     2.0808   385.8863 </r>
       <r>     8.8879    11.3069   387.0829 </r>
       <r>     8.9937     7.4555   387.8718 </r>
       <r>     9.0996     9.7057   388.8989 </r>
       <r>     9.2054     5.7244   389.5046 </r>
       <r>     9.3112     8.2136   390.3738 </r>
       <r>     9.4170    11.4202   391.5823 </r>
       <r>     9.5229     7.3332   392.3583 </r>
       <r>     9.6287    26.8991   395.2048 </r>
       <r>     9.7345    27.2090   398.0841 </r>
       <r>     9.8403    19.8764   400.1874 </r>
       <r>     9.9461    15.4195   401.8191 </r>
       <r>    10.0520    23.1497   404.2689 </r>
       <r>    10.1578    23.0539   406.7084 </r>
       <r>    10.2636    24.4456   409.2953 </r>
       <r>    10.3694    17.6443   411.1624 </r>
       <r>    10.4752    26.2335   413.9385 </r>
       <r>    10.5811    32.9635   417.4267 </r>
       <r>    10.6869    23.5674   419.9207 </r>
       <r>    10.7927    21.4206   422.1874 </r>
       <r>    10.8985    22.0435   424.5201 </r>
       <r>    11.0043    19.4030   426.5733 </r>
       <r>    11.1102    31.8083   429.9393 </r>
       <r>    11.2160    22.5727   432.3280 </r>
       <r>    11.3218    19.7882   434.4220 </r>
       <r>    11.4276    16.8531   436.2054 </r>
       <r>    11.5335    16.0202   437.9007 </r>
       <r>    11.6393    15.5897   439.5504 </r>
       <r>    11.7451    18.5065   441.5088 </r>
       <r>    11.8509    12.1921   442.7990 </r>
       <r>    11.9567    28.7433   445.8406 </r>
       <r>    12.0626    34.3881   449.4796 </r>
       <r>    12.1684    30.7568   452.7343 </r>
       <r>    12.2742    21.7010   455.0307 </r>
       <r>    12.3800    33.2232   458.5465 </r>
       <r>    12.4858    28.8912   461.6038 </r>
       <r>    12.5917    14.8476   463.1749 </r>
       <r>    12.6975     4.8856   463.6919 </r>
       <r>    12.8033     1.7892   463.8813 </r>
       <r>    12.9091     1.0978   463.9975 </r>
       <r>    13.0149     0.0241   464.0000 </r>
       <r>    13.1208     0.0000   464.0000 </r>
       <r>    13.2266     0.0000   464.0000 </r>
       <r>    13.3324     0.0000   464.0000 </r>
       <r>    13.4382     0.0000   464.0000 </r>
       <r>    13.5441     0.0000   464.0000 </r>
       <r>    13.6499     0.0000   464.0000 </r>
       <r>    13.7557     0.0000   464.0000 </r>
       <r>    13.8615     0.0000   464.0000 </r>
       <r>    13.9673     0.0000   464.0000 </r>
       <r>    14.0732     0.0000   464.0000 </r>
       <r>    14.1790     0.0000   464.0000 </r>
       <r>    14.2848     0.0000   464.0000 </r>
      </set>
     </set>
    </array>
   </total>
  </dos>
 </calculation>
 <structure name="finalpos" >
  <crystal>
   <varray name="basis" >
    <v>       7.68335587       0.00000000       0.00000000 </v>
    <v>       0.00000000       7.68335587       0.00000000 </v>
    <v>       0.00000000       0.00000000      12.12524777 </v>
   </varray>
   <i name="volume">    715.80136021 </i>
   <varray name="rec_basis" >
    <v>       0.13015146       0.00000000       0.00000000 </v>
    <v>       0.00000000       0.13015146       0.00000000 </v>
    <v>       0.00000000       0.00000000       0.08247254 </v>
   </varray>
  </crystal>
  <varray name="positions" >
   <v>       0.24876687       0.24876687       0.85707857 </v>
   <v>       0.75123313       0.24876687       0.85707857 </v>
   <v>       0.24876687       0.75123313       0.85707857 </v>
   <v>       0.75123313       0.75123313       0.85707857 </v>
   <v>       1.00000000       0.00000000       0.64382087 </v>
   <v>       0.50000000       0.00000000       0.64468746 </v>
   <v>       1.00000000       0.50000000       0.64468746 </v>
   <v>       0.50000000       0.50000000       0.64563994 </v>
   <v>       1.00000000       0.00000000       0.35617913 </v>
   <v>       0.50000000       0.00000000       0.35531254 </v>
   <v>       1.00000000       0.50000000       0.35531254 </v>
   <v>       0.50000000       0.50000000       0.35436006 </v>
   <v>       0.24876687       0.24876687       0.14292143 </v>
   <v>       0.75123313       0.24876687       0.14292143 </v>
   <v>       0.24876687       0.75123313       0.14292143 </v>
   <v>       0.75123313       0.75123313       0.14292143 </v>
   <v>       0.50000000       0.00000000       0.00000000 </v>
   <v>       1.00000000       0.50000000       0.00000000 </v>
   <v>       0.50000000       0.50000000       0.00000000 </v>
   <v>       0.25038850       0.25038850       0.50000000 </v>
   <v>       0.74961150       0.25038850       0.50000000 </v>
   <v>       0.25038850       0.74961150       0.50000000 </v>
   <v>       0.74961150       0.74961150       0.50000000 </v>
   <v>       1.00000000       0.24943232       0.75031605 </v>
   <v>       0.50000000       0.24956559       0.75151904 </v>
   <v>       1.00000000       0.75056768       0.75031605 </v>
   <v>       0.50000000       0.75043441       0.75151904 </v>
   <v>       0.24943232       0.00000000       0.75031605 </v>
   <v>       0.75056768       0.00000000       0.75031605 </v>
   <v>       0.24956559       0.50000000       0.75151904 </v>
   <v>       0.75043441       0.50000000       0.75151904 </v>
   <v>       0.24943232       0.00000000       0.24968395 </v>
   <v>       0.75056768       0.00000000       0.24968395 </v>
   <v>       0.24956559       0.50000000       0.24848096 </v>
   <v>       0.75043441       0.50000000       0.24848096 </v>
   <v>       1.00000000       0.24943232       0.24968395 </v>
   <v>       0.50000000       0.24956559       0.24848096 </v>
   <v>       1.00000000       0.75056768       0.24968395 </v>
   <v>       0.50000000       0.75043441       0.24848096 </v>
   <v>       1.00000000       0.00000000       0.00000000 </v>
  </varray>
 </structure>
</modeling>
