unknown system                          
           1
     7.683356    0.000000    0.000000
     0.000000    7.683356    0.000000
     0.000000    0.000000   12.125248
   Bi   Se   O    S 
    16     7    16     1
Direct configuration=     1
   0.24891108  0.24891108  0.85428186
   0.75108892  0.24891108  0.85428186
   0.24891108  0.75108892  0.85428186
   0.75108892  0.75108892  0.85428186
   0.00000000  0.00000000  0.64671764
   0.50000000  0.00000000  0.64751587
   0.00000000  0.50000000  0.64751587
   0.50000000  0.50000000  0.64841730
   0.00000000  0.00000000  0.35328236
   0.50000000  0.00000000  0.35248413
   0.00000000  0.50000000  0.35248413
   0.50000000  0.50000000  0.35158270
   0.24891108  0.24891108  0.14571814
   0.75108892  0.24891108  0.14571814
   0.24891108  0.75108892  0.14571814
   0.75108892  0.75108892  0.14571814
   0.50000000  0.00000000  0.00000000
   0.00000000  0.50000000  0.00000000
   0.50000000  0.50000000  0.00000000
   0.25013764  0.25013764  0.50000000
   0.74986236  0.25013764  0.50000000
   0.25013764  0.74986236  0.50000000
   0.74986236  0.74986236  0.50000000
   0.00000000  0.24953518  0.75047350
   0.50000000  0.24967019  0.75139378
   0.00000000  0.75046482  0.75047350
   0.50000000  0.75032981  0.75139378
   0.24953518  0.00000000  0.75047350
   0.75046482  0.00000000  0.75047350
   0.24967019  0.50000000  0.75139378
   0.75032981  0.50000000  0.75139378
   0.24953518  0.00000000  0.24952650
   0.75046482  0.00000000  0.24952650
   0.24967019  0.50000000  0.24860622
   0.75032981  0.50000000  0.24860622
   0.00000000  0.24953518  0.24952650
   0.50000000  0.24967019  0.24860622
   0.00000000  0.75046482  0.24952650
   0.50000000  0.75032981  0.24860622
   0.00000000  0.00000000  0.00000000
Direct configuration=     2
   0.24889321  0.24889321  0.85728885
   0.75110679  0.24889321  0.85728885
   0.24889321  0.75110679  0.85728885
   0.75110679  0.75110679  0.85728885
   1.00000000  1.00000000  0.64372511
   0.50000000  1.00000000  0.64453209
   0.00000000  0.50000000  0.64453209
   0.50000000  0.50000000  0.64541590
   0.00000000  1.00000000  0.35627489
   0.50000000  1.00000000  0.35546791
   1.00000000  0.50000000  0.35546791
   0.50000000  0.50000000  0.35458410
   0.24889321  0.24889321  0.14271115
   0.75110679  0.24889321  0.14271115
   0.24889321  0.75110679  0.14271115
   0.75110679  0.75110679  0.14271115
   0.50000000  1.00000000  0.00000000
   1.00000000  0.50000000  1.00000000
   0.50000000  0.50000000  0.00000000
   0.25016224  0.25016224  0.50000000
   0.74983776  0.25016224  0.50000000
   0.25016224  0.74983776  0.50000000
   0.74983776  0.74983776  0.50000000
   1.00000000  0.24952815  0.75044551
   0.50000000  0.24966477  0.75142252
   0.00000000  0.75047185  0.75044551
   0.50000000  0.75033523  0.75142252
   0.24952815  1.00000000  0.75044551
   0.75047185  1.00000000  0.75044551
   0.24966477  0.50000000  0.75142252
   0.75033523  0.50000000  0.75142252
   0.24952815  1.00000000  0.24955449
   0.75047185  1.00000000  0.24955449
   0.24966477  0.50000000  0.24857748
   0.75033523  0.50000000  0.24857748
   1.00000000  0.24952815  0.24955449
   0.50000000  0.24966477  0.24857748
   0.00000000  0.75047185  0.24955449
   0.50000000  0.75033523  0.24857748
   0.00000000  1.00000000  0.00000000
Direct configuration=     3
   0.24889430  0.24889430  0.85710496
   0.75110570  0.24889430  0.85710496
   0.24889430  0.75110570  0.85710496
   0.75110570  0.75110570  0.85710496
   0.00000000  0.00000000  0.64390811
   0.50000000  0.00000000  0.64471456
   0.00000000  0.50000000  0.64471456
   0.50000000  0.50000000  0.64559945
   0.00000000  0.00000000  0.35609189
   0.50000000  0.00000000  0.35528544
   0.00000000  0.50000000  0.35528544
   0.50000000  0.50000000  0.35440055
   0.24889430  0.24889430  0.14289504
   0.75110570  0.24889430  0.14289504
   0.24889430  0.75110570  0.14289504
   0.75110570  0.75110570  0.14289504
   0.50000000  0.00000000  0.00000000
   0.00000000  0.50000000  0.00000000
   0.50000000  0.50000000  0.00000000
   0.25016074  0.25016074  0.50000000
   0.74983926  0.25016074  0.50000000
   0.25016074  0.74983926  0.50000000
   0.74983926  0.74983926  0.50000000
   0.00000000  0.24952858  0.75044723
   0.50000000  0.24966510  0.75142076
   0.00000000  0.75047142  0.75044723
   0.50000000  0.75033490  0.75142076
   0.24952858  0.00000000  0.75044723
   0.75047142  0.00000000  0.75044723
   0.24966510  0.50000000  0.75142076
   0.75033490  0.50000000  0.75142076
   0.24952858  0.00000000  0.24955277
   0.75047142  0.00000000  0.24955277
   0.24966510  0.50000000  0.24857924
   0.75033490  0.50000000  0.24857924
   0.00000000  0.24952858  0.24955277
   0.50000000  0.24966510  0.24857924
   0.00000000  0.75047142  0.24955277
   0.50000000  0.75033490  0.24857924
   0.00000000  0.00000000  0.00000000
Direct configuration=     4
   0.24889431  0.24889431  0.85710412
   0.75110569  0.24889431  0.85710412
   0.24889431  0.75110569  0.85710412
   0.75110569  0.75110569  0.85710412
   0.00000000  0.00000000  0.64390895
   0.50000000  0.00000000  0.64471540
   0.00000000  0.50000000  0.64471540
   0.50000000  0.50000000  0.64560029
   0.00000000  0.00000000  0.35609105
   0.50000000  0.00000000  0.35528460
   0.00000000  0.50000000  0.35528460
   0.50000000  0.50000000  0.35439971
   0.24889431  0.24889431  0.14289588
   0.75110569  0.24889431  0.14289588
   0.24889431  0.75110569  0.14289588
   0.75110569  0.75110569  0.14289588
   0.50000000  0.00000000  0.00000000
   0.00000000  0.50000000  0.00000000
   0.50000000  0.50000000  0.00000000
   0.25016073  0.25016073  0.50000000
   0.74983927  0.25016073  0.50000000
   0.25016073  0.74983927  0.50000000
   0.74983927  0.74983927  0.50000000
   0.00000000  0.24952858  0.75044723
   0.50000000  0.24966511  0.75142075
   0.00000000  0.75047142  0.75044723
   0.50000000  0.75033489  0.75142075
   0.24952858  0.00000000  0.75044723
   0.75047142  0.00000000  0.75044723
   0.24966511  0.50000000  0.75142075
   0.75033489  0.50000000  0.75142075
   0.24952858  0.00000000  0.24955277
   0.75047142  0.00000000  0.24955277
   0.24966511  0.50000000  0.24857925
   0.75033489  0.50000000  0.24857925
   0.00000000  0.24952858  0.24955277
   0.50000000  0.24966511  0.24857925
   0.00000000  0.75047142  0.24955277
   0.50000000  0.75033489  0.24857925
   0.00000000  0.00000000  0.00000000
Direct configuration=     5
   0.24882547  0.24882547  0.85709230
   0.75117453  0.24882547  0.85709230
   0.24882547  0.75117453  0.85709230
   0.75117453  0.75117453  0.85709230
   1.00000000  0.00000000  0.64392455
   0.50000000  0.00000000  0.64470174
   0.00000000  0.50000000  0.64470174
   0.50000000  0.50000000  0.64556010
   0.00000000  0.00000000  0.35607545
   0.50000000  0.00000000  0.35529826
   1.00000000  0.50000000  0.35529826
   0.50000000  0.50000000  0.35443990
   0.24882547  0.24882547  0.14290770
   0.75117453  0.24882547  0.14290770
   0.24882547  0.75117453  0.14290770
   0.75117453  0.75117453  0.14290770
   0.50000000  0.00000000  0.00000000
   1.00000000  0.50000000  0.00000000
   0.50000000  0.50000000  0.00000000
   0.25019056  0.25019056  0.50000000
   0.74980944  0.25019056  0.50000000
   0.25019056  0.74980944  0.50000000
   0.74980944  0.74980944  0.50000000
   1.00000000  0.24952575  0.75044033
   0.50000000  0.24966200  0.75143908
   0.00000000  0.75047425  0.75044033
   0.50000000  0.75033800  0.75143908
   0.24952575  0.00000000  0.75044033
   0.75047425  0.00000000  0.75044033
   0.24966200  0.50000000  0.75143908
   0.75033800  0.50000000  0.75143908
   0.24952575  0.00000000  0.24955967
   0.75047425  0.00000000  0.24955967
   0.24966200  0.50000000  0.24856092
   0.75033800  0.50000000  0.24856092
   0.00000000  0.24952575  0.24955967
   0.50000000  0.24966200  0.24856092
   1.00000000  0.75047425  0.24955967
   0.50000000  0.75033800  0.24856092
   1.00000000  0.00000000  0.00000000
Direct configuration=     6
   0.24881185  0.24881185  0.85708996
   0.75118815  0.24881185  0.85708996
   0.24881185  0.75118815  0.85708996
   0.75118815  0.75118815  0.85708996
   0.00000000  1.00000000  0.64392763
   0.50000000  1.00000000  0.64469904
   0.00000000  0.50000000  0.64469904
   0.50000000  0.50000000  0.64555215
   0.00000000  1.00000000  0.35607237
   0.50000000  1.00000000  0.35530096
   0.00000000  0.50000000  0.35530096
   0.50000000  0.50000000  0.35444785
   0.24881185  0.24881185  0.14291004
   0.75118815  0.24881185  0.14291004
   0.24881185  0.75118815  0.14291004
   0.75118815  0.75118815  0.14291004
   0.50000000  1.00000000  0.00000000
   0.00000000  0.50000000  0.00000000
   0.50000000  0.50000000  0.00000000
   0.25019647  0.25019647  0.50000000
   0.74980353  0.25019647  0.50000000
   0.25019647  0.74980353  0.50000000
   0.74980353  0.74980353  0.50000000
   0.00000000  0.24952519  0.75043897
   0.50000000  0.24966139  0.75144271
   0.00000000  0.75047481  0.75043897
   0.50000000  0.75033861  0.75144271
   0.24952519  1.00000000  0.75043897
   0.75047481  1.00000000  0.75043897
   0.24966139  0.50000000  0.75144271
   0.75033861  0.50000000  0.75144271
   0.24952519  1.00000000  0.24956103
   0.75047481  1.00000000  0.24956103
   0.24966139  0.50000000  0.24855729
   0.75033861  0.50000000  0.24855729
   0.00000000  0.24952519  0.24956103
   0.50000000  0.24966139  0.24855729
   0.00000000  0.75047481  0.24956103
   0.50000000  0.75033861  0.24855729
   0.00000000  1.00000000  0.00000000
Direct configuration=     7
   0.24880049  0.24880049  0.85709315
   0.75119951  0.24880049  0.85709315
   0.24880049  0.75119951  0.85709315
   0.75119951  0.75119951  0.85709315
   1.00000000  0.00000000  0.64392152
   0.50000000  0.00000000  0.64470226
   1.00000000  0.50000000  0.64470226
   0.50000000  0.50000000  0.64556563
   1.00000000  0.00000000  0.35607848
   0.50000000  0.00000000  0.35529774
   1.00000000  0.50000000  0.35529774
   0.50000000  0.50000000  0.35443437
   0.24880049  0.24880049  0.14290685
   0.75119951  0.24880049  0.14290685
   0.24880049  0.75119951  0.14290685
   0.75119951  0.75119951  0.14290685
   0.50000000  0.00000000  0.00000000
   1.00000000  0.50000000  0.00000000
   0.50000000  0.50000000  0.00000000
   0.25022254  0.25022254  0.50000000
   0.74977746  0.25022254  0.50000000
   0.25022254  0.74977746  0.50000000
   0.74977746  0.74977746  0.50000000
   1.00000000  0.24950799  0.75041500
   0.50000000  0.24964359  0.75145013
   1.00000000  0.75049201  0.75041500
   0.50000000  0.75035641  0.75145013
   0.24950799  0.00000000  0.75041500
   0.75049201  0.00000000  0.75041500
   0.24964359  0.50000000  0.75145013
   0.75035641  0.50000000  0.75145013
   0.24950799  0.00000000  0.24958500
   0.75049201  0.00000000  0.24958500
   0.24964359  0.50000000  0.24854987
   0.75035641  0.50000000  0.24854987
   1.00000000  0.24950799  0.24958500
   0.50000000  0.24964359  0.24854987
   1.00000000  0.75049201  0.24958500
   0.50000000  0.75035641  0.24854987
   1.00000000  0.00000000  0.00000000
Direct configuration=     8
   0.24877708  0.24877708  0.85709972
   0.75122292  0.24877708  0.85709972
   0.24877708  0.75122292  0.85709972
   0.75122292  0.75122292  0.85709972
   0.00000000  1.00000000  0.64390892
   0.50000000  1.00000000  0.64470889
   0.00000000  0.50000000  0.64470889
   0.50000000  0.50000000  0.64559340
   0.00000000  1.00000000  0.35609108
   0.50000000  1.00000000  0.35529111
   0.00000000  0.50000000  0.35529111
   0.50000000  0.50000000  0.35440660
   0.24877708  0.24877708  0.14290028
   0.75122292  0.24877708  0.14290028
   0.24877708  0.75122292  0.14290028
   0.75122292  0.75122292  0.14290028
   0.50000000  1.00000000  0.00000000
   0.00000000  0.50000000  0.00000000
   0.50000000  0.50000000  0.00000000
   0.25027626  0.25027626  0.50000000
   0.74972374  0.25027626  0.50000000
   0.25027626  0.74972374  0.50000000
   0.74972374  0.74972374  0.50000000
   0.00000000  0.24947254  0.75036561
   0.50000000  0.24960692  0.75146541
   0.00000000  0.75052746  0.75036561
   0.50000000  0.75039308  0.75146541
   0.24947254  1.00000000  0.75036561
   0.75052746  1.00000000  0.75036561
   0.24960692  0.50000000  0.75146541
   0.75039308  0.50000000  0.75146541
   0.24947254  1.00000000  0.24963439
   0.75052746  1.00000000  0.24963439
   0.24960692  0.50000000  0.24853459
   0.75039308  0.50000000  0.24853459
   0.00000000  0.24947254  0.24963439
   0.50000000  0.24960692  0.24853459
   0.00000000  0.75052746  0.24963439
   0.50000000  0.75039308  0.24853459
   0.00000000  1.00000000  0.00000000
Direct configuration=     9
   0.24877519  0.24877519  0.85709493
   0.75122481  0.24877519  0.85709493
   0.24877519  0.75122481  0.85709493
   0.75122481  0.75122481  0.85709493
   1.00000000  0.00000000  0.64389205
   0.50000000  0.00000000  0.64470405
   1.00000000  0.50000000  0.64470405
   0.50000000  0.50000000  0.64560089
   1.00000000  0.00000000  0.35610795
   0.50000000  0.00000000  0.35529595
   1.00000000  0.50000000  0.35529595
   0.50000000  0.50000000  0.35439911
   0.24877519  0.24877519  0.14290507
   0.75122481  0.24877519  0.14290507
   0.24877519  0.75122481  0.14290507
   0.75122481  0.75122481  0.14290507
   0.50000000  0.00000000  0.00000000
   1.00000000  0.50000000  0.00000000
   0.50000000  0.50000000  0.00000000
   0.25029541  0.25029541  0.50000000
   0.74970459  0.25029541  0.50000000
   0.25029541  0.74970459  0.50000000
   0.74970459  0.74970459  0.50000000
   1.00000000  0.24946131  0.75035555
   0.50000000  0.24959528  0.75147652
   1.00000000  0.75053869  0.75035555
   0.50000000  0.75040472  0.75147652
   0.24946131  0.00000000  0.75035555
   0.75053869  0.00000000  0.75035555
   0.24959528  0.50000000  0.75147652
   0.75040472  0.50000000  0.75147652
   0.24946131  0.00000000  0.24964445
   0.75053869  0.00000000  0.24964445
   0.24959528  0.50000000  0.24852348
   0.75040472  0.50000000  0.24852348
   1.00000000  0.24946131  0.24964445
   0.50000000  0.24959528  0.24852348
   1.00000000  0.75053869  0.24964445
   0.50000000  0.75040472  0.24852348
   1.00000000  0.00000000  0.00000000
Direct configuration=    10
   0.24876952  0.24876952  0.85708055
   0.75123048  0.24876952  0.85708055
   0.24876952  0.75123048  0.85708055
   0.75123048  0.75123048  0.85708055
   0.00000000  1.00000000  0.64384146
   0.50000000  1.00000000  0.64468954
   0.00000000  0.50000000  0.64468954
   0.50000000  0.50000000  0.64562338
   0.00000000  1.00000000  0.35615854
   0.50000000  1.00000000  0.35531046
   0.00000000  0.50000000  0.35531046
   0.50000000  0.50000000  0.35437662
   0.24876952  0.24876952  0.14291945
   0.75123048  0.24876952  0.14291945
   0.24876952  0.75123048  0.14291945
   0.75123048  0.75123048  0.14291945
   0.50000000  1.00000000  0.00000000
   0.00000000  0.50000000  0.00000000
   0.50000000  0.50000000  0.00000000
   0.25035287  0.25035287  0.50000000
   0.74964713  0.25035287  0.50000000
   0.25035287  0.74964713  0.50000000
   0.74964713  0.74964713  0.50000000
   0.00000000  0.24942762  0.75032535
   0.50000000  0.24956035  0.75150985
   0.00000000  0.75057238  0.75032535
   0.50000000  0.75043965  0.75150985
   0.24942762  1.00000000  0.75032535
   0.75057238  1.00000000  0.75032535
   0.24956035  0.50000000  0.75150985
   0.75043965  0.50000000  0.75150985
   0.24942762  1.00000000  0.24967465
   0.75057238  1.00000000  0.24967465
   0.24956035  0.50000000  0.24849015
   0.75043965  0.50000000  0.24849015
   0.00000000  0.24942762  0.24967465
   0.50000000  0.24956035  0.24849015
   0.00000000  0.75057238  0.24967465
   0.50000000  0.75043965  0.24849015
   0.00000000  1.00000000  0.00000000
Direct configuration=    11
   0.24876847  0.24876847  0.85707789
   0.75123153  0.24876847  0.85707789
   0.24876847  0.75123153  0.85707789
   0.75123153  0.75123153  0.85707789
   1.00000000  0.00000000  0.64383210
   0.50000000  0.00000000  0.64468686
   1.00000000  0.50000000  0.64468686
   0.50000000  0.50000000  0.64562754
   1.00000000  0.00000000  0.35616790
   0.50000000  0.00000000  0.35531314
   1.00000000  0.50000000  0.35531314
   0.50000000  0.50000000  0.35437246
   0.24876847  0.24876847  0.14292211
   0.75123153  0.24876847  0.14292211
   0.24876847  0.75123153  0.14292211
   0.75123153  0.75123153  0.14292211
   0.50000000  0.00000000  0.00000000
   1.00000000  0.50000000  0.00000000
   0.50000000  0.50000000  0.00000000
   0.25036350  0.25036350  0.50000000
   0.74963650  0.25036350  0.50000000
   0.25036350  0.74963650  0.50000000
   0.74963650  0.74963650  0.50000000
   1.00000000  0.24942138  0.75031977
   0.50000000  0.24955389  0.75151601
   1.00000000  0.75057862  0.75031977
   0.50000000  0.75044611  0.75151601
   0.24942138  0.00000000  0.75031977
   0.75057862  0.00000000  0.75031977
   0.24955389  0.50000000  0.75151601
   0.75044611  0.50000000  0.75151601
   0.24942138  0.00000000  0.24968023
   0.75057862  0.00000000  0.24968023
   0.24955389  0.50000000  0.24848399
   0.75044611  0.50000000  0.24848399
   1.00000000  0.24942138  0.24968023
   0.50000000  0.24955389  0.24848399
   1.00000000  0.75057862  0.24968023
   0.50000000  0.75044611  0.24848399
   1.00000000  0.00000000  0.00000000
Direct configuration=    12
   0.24876757  0.24876757  0.85707790
   0.75123243  0.24876757  0.85707790
   0.24876757  0.75123243  0.85707790
   0.75123243  0.75123243  0.85707790
   0.00000000  1.00000000  0.64382767
   0.50000000  1.00000000  0.64468678
   0.00000000  0.50000000  0.64468678
   0.50000000  0.50000000  0.64563175
   0.00000000  1.00000000  0.35617233
   0.50000000  1.00000000  0.35531322
   0.00000000  0.50000000  0.35531322
   0.50000000  0.50000000  0.35436825
   0.24876757  0.24876757  0.14292210
   0.75123243  0.24876757  0.14292210
   0.24876757  0.75123243  0.14292210
   0.75123243  0.75123243  0.14292210
   0.50000000  1.00000000  0.00000000
   0.00000000  0.50000000  0.00000000
   0.50000000  0.50000000  0.00000000
   0.25037006  0.25037006  0.50000000
   0.74962994  0.25037006  0.50000000
   0.25037006  0.74962994  0.50000000
   0.74962994  0.74962994  0.50000000
   0.00000000  0.24942468  0.75031894
   0.50000000  0.24955738  0.75151622
   0.00000000  0.75057532  0.75031894
   0.50000000  0.75044262  0.75151622
   0.24942468  1.00000000  0.75031894
   0.75057532  1.00000000  0.75031894
   0.24955738  0.50000000  0.75151622
   0.75044262  0.50000000  0.75151622
   0.24942468  1.00000000  0.24968106
   0.75057532  1.00000000  0.24968106
   0.24955738  0.50000000  0.24848378
   0.75044262  0.50000000  0.24848378
   0.00000000  0.24942468  0.24968106
   0.50000000  0.24955738  0.24848378
   0.00000000  0.75057532  0.24968106
   0.50000000  0.75044262  0.24848378
   0.00000000  1.00000000  0.00000000
Direct configuration=    13
   0.24876559  0.24876559  0.85707792
   0.75123441  0.24876559  0.85707792
   0.24876559  0.75123441  0.85707792
   0.75123441  0.75123441  0.85707792
   1.00000000  0.00000000  0.64381801
   0.50000000  0.00000000  0.64468662
   1.00000000  0.50000000  0.64468662
   0.50000000  0.50000000  0.64564093
   1.00000000  0.00000000  0.35618199
   0.50000000  0.00000000  0.35531338
   1.00000000  0.50000000  0.35531338
   0.50000000  0.50000000  0.35435907
   0.24876559  0.24876559  0.14292208
   0.75123441  0.24876559  0.14292208
   0.24876559  0.75123441  0.14292208
   0.75123441  0.75123441  0.14292208
   0.50000000  0.00000000  0.00000000
   1.00000000  0.50000000  0.00000000
   0.50000000  0.50000000  0.00000000
   0.25038439  0.25038439  0.50000000
   0.74961561  0.25038439  0.50000000
   0.25038439  0.74961561  0.50000000
   0.74961561  0.74961561  0.50000000
   1.00000000  0.24943187  0.75031712
   0.50000000  0.24956500  0.75151668
   1.00000000  0.75056813  0.75031712
   0.50000000  0.75043500  0.75151668
   0.24943187  0.00000000  0.75031712
   0.75056813  0.00000000  0.75031712
   0.24956500  0.50000000  0.75151668
   0.75043500  0.50000000  0.75151668
   0.24943187  0.00000000  0.24968288
   0.75056813  0.00000000  0.24968288
   0.24956500  0.50000000  0.24848332
   0.75043500  0.50000000  0.24848332
   1.00000000  0.24943187  0.24968288
   0.50000000  0.24956500  0.24848332
   1.00000000  0.75056813  0.24968288
   0.50000000  0.75043500  0.24848332
   1.00000000  0.00000000  0.00000000
Direct configuration=    14
   0.24876556  0.24876556  0.85707792
   0.75123444  0.24876556  0.85707792
   0.24876556  0.75123444  0.85707792
   0.75123444  0.75123444  0.85707792
   0.00000000  1.00000000  0.64381788
   0.50000000  1.00000000  0.64468661
   0.00000000  0.50000000  0.64468661
   0.50000000  0.50000000  0.64564106
   0.00000000  1.00000000  0.35618212
   0.50000000  1.00000000  0.35531339
   0.00000000  0.50000000  0.35531339
   0.50000000  0.50000000  0.35435894
   0.24876556  0.24876556  0.14292208
   0.75123444  0.24876556  0.14292208
   0.24876556  0.75123444  0.14292208
   0.75123444  0.75123444  0.14292208
   0.50000000  1.00000000  0.00000000
   0.00000000  0.50000000  0.00000000
   0.50000000  0.50000000  0.00000000
   0.25038459  0.25038459  0.50000000
   0.74961541  0.25038459  0.50000000
   0.25038459  0.74961541  0.50000000
   0.74961541  0.74961541  0.50000000
   0.00000000  0.24943197  0.75031710
   0.50000000  0.24956511  0.75151669
   0.00000000  0.75056803  0.75031710
   0.50000000  0.75043489  0.75151669
   0.24943197  1.00000000  0.75031710
   0.75056803  1.00000000  0.75031710
   0.24956511  0.50000000  0.75151669
   0.75043489  0.50000000  0.75151669
   0.24943197  1.00000000  0.24968290
   0.75056803  1.00000000  0.24968290
   0.24956511  0.50000000  0.24848331
   0.75043489  0.50000000  0.24848331
   0.00000000  0.24943197  0.24968290
   0.50000000  0.24956511  0.24848331
   0.00000000  0.75056803  0.24968290
   0.50000000  0.75043489  0.24848331
   0.00000000  1.00000000  0.00000000
Direct configuration=    15
   0.24876613  0.24876613  0.85707807
   0.75123387  0.24876613  0.85707807
   0.24876613  0.75123387  0.85707807
   0.75123387  0.75123387  0.85707807
   1.00000000  0.00000000  0.64381892
   0.50000000  0.00000000  0.64468691
   1.00000000  0.50000000  0.64468691
   0.50000000  0.50000000  0.64564071
   1.00000000  0.00000000  0.35618108
   0.50000000  0.00000000  0.35531309
   1.00000000  0.50000000  0.35531309
   0.50000000  0.50000000  0.35435929
   0.24876613  0.24876613  0.14292193
   0.75123387  0.24876613  0.14292193
   0.24876613  0.75123387  0.14292193
   0.75123387  0.75123387  0.14292193
   0.50000000  0.00000000  0.00000000
   1.00000000  0.50000000  0.00000000
   0.50000000  0.50000000  0.00000000
   0.25038522  0.25038522  0.50000000
   0.74961478  0.25038522  0.50000000
   0.25038522  0.74961478  0.50000000
   0.74961478  0.74961478  0.50000000
   1.00000000  0.24943232  0.75031657
   0.50000000  0.24956556  0.75151714
   1.00000000  0.75056768  0.75031657
   0.50000000  0.75043444  0.75151714
   0.24943232  0.00000000  0.75031657
   0.75056768  0.00000000  0.75031657
   0.24956556  0.50000000  0.75151714
   0.75043444  0.50000000  0.75151714
   0.24943232  0.00000000  0.24968343
   0.75056768  0.00000000  0.24968343
   0.24956556  0.50000000  0.24848286
   0.75043444  0.50000000  0.24848286
   1.00000000  0.24943232  0.24968343
   0.50000000  0.24956556  0.24848286
   1.00000000  0.75056768  0.24968343
   0.50000000  0.75043444  0.24848286
   1.00000000  0.00000000  0.00000000
Direct configuration=    16
   0.24876668  0.24876668  0.85707821
   0.75123332  0.24876668  0.85707821
   0.24876668  0.75123332  0.85707821
   0.75123332  0.75123332  0.85707821
   0.00000000  1.00000000  0.64381994
   0.50000000  1.00000000  0.64468720
   0.00000000  0.50000000  0.64468720
   0.50000000  0.50000000  0.64564038
   0.00000000  1.00000000  0.35618006
   0.50000000  1.00000000  0.35531280
   0.00000000  0.50000000  0.35531280
   0.50000000  0.50000000  0.35435962
   0.24876668  0.24876668  0.14292179
   0.75123332  0.24876668  0.14292179
   0.24876668  0.75123332  0.14292179
   0.75123332  0.75123332  0.14292179
   0.50000000  1.00000000  0.00000000
   0.00000000  0.50000000  0.00000000
   0.50000000  0.50000000  0.00000000
   0.25038584  0.25038584  0.50000000
   0.74961416  0.25038584  0.50000000
   0.25038584  0.74961416  0.50000000
   0.74961416  0.74961416  0.50000000
   0.00000000  0.24943267  0.75031605
   0.50000000  0.24956599  0.75151758
   0.00000000  0.75056733  0.75031605
   0.50000000  0.75043401  0.75151758
   0.24943267  1.00000000  0.75031605
   0.75056733  1.00000000  0.75031605
   0.24956599  0.50000000  0.75151758
   0.75043401  0.50000000  0.75151758
   0.24943267  1.00000000  0.24968395
   0.75056733  1.00000000  0.24968395
   0.24956599  0.50000000  0.24848242
   0.75043401  0.50000000  0.24848242
   0.00000000  0.24943267  0.24968395
   0.50000000  0.24956599  0.24848242
   0.00000000  0.75056733  0.24968395
   0.50000000  0.75043401  0.24848242
   0.00000000  1.00000000  0.00000000
Direct configuration=    17
   0.24876686  0.24876686  0.85707825
   0.75123314  0.24876686  0.85707825
   0.24876686  0.75123314  0.85707825
   0.75123314  0.75123314  0.85707825
   1.00000000  0.00000000  0.64382027
   0.50000000  0.00000000  0.64468729
   1.00000000  0.50000000  0.64468729
   0.50000000  0.50000000  0.64564027
   1.00000000  0.00000000  0.35617973
   0.50000000  0.00000000  0.35531271
   1.00000000  0.50000000  0.35531271
   0.50000000  0.50000000  0.35435973
   0.24876686  0.24876686  0.14292175
   0.75123314  0.24876686  0.14292175
   0.24876686  0.75123314  0.14292175
   0.75123314  0.75123314  0.14292175
   0.50000000  0.00000000  0.00000000
   1.00000000  0.50000000  0.00000000
   0.50000000  0.50000000  0.00000000
   0.25038604  0.25038604  0.50000000
   0.74961396  0.25038604  0.50000000
   0.25038604  0.74961396  0.50000000
   0.74961396  0.74961396  0.50000000
   1.00000000  0.24943278  0.75031589
   0.50000000  0.24956613  0.75151772
   1.00000000  0.75056722  0.75031589
   0.50000000  0.75043387  0.75151772
   0.24943278  0.00000000  0.75031589
   0.75056722  0.00000000  0.75031589
   0.24956613  0.50000000  0.75151772
   0.75043387  0.50000000  0.75151772
   0.24943278  0.00000000  0.24968411
   0.75056722  0.00000000  0.24968411
   0.24956613  0.50000000  0.24848228
   0.75043387  0.50000000  0.24848228
   1.00000000  0.24943278  0.24968411
   0.50000000  0.24956613  0.24848228
   1.00000000  0.75056722  0.24968411
   0.50000000  0.75043387  0.24848228
   1.00000000  0.00000000  0.00000000
Direct configuration=    18
   0.24876692  0.24876692  0.85707811
   0.75123308  0.24876692  0.85707811
   0.24876692  0.75123308  0.85707811
   0.75123308  0.75123308  0.85707811
   0.00000000  1.00000000  0.64382038
   0.50000000  1.00000000  0.64468701
   0.00000000  0.50000000  0.64468701
   0.50000000  0.50000000  0.64563955
   0.00000000  1.00000000  0.35617962
   0.50000000  1.00000000  0.35531299
   0.00000000  0.50000000  0.35531299
   0.50000000  0.50000000  0.35436045
   0.24876692  0.24876692  0.14292189
   0.75123308  0.24876692  0.14292189
   0.24876692  0.75123308  0.14292189
   0.75123308  0.75123308  0.14292189
   0.50000000  1.00000000  0.00000000
   0.00000000  0.50000000  0.00000000
   0.50000000  0.50000000  0.00000000
   0.25038678  0.25038678  0.50000000
   0.74961322  0.25038678  0.50000000
   0.25038678  0.74961322  0.50000000
   0.74961322  0.74961322  0.50000000
   0.00000000  0.24943299  0.75031590
   0.50000000  0.24956632  0.75151846
   0.00000000  0.75056701  0.75031590
   0.50000000  0.75043368  0.75151846
   0.24943299  1.00000000  0.75031590
   0.75056701  1.00000000  0.75031590
   0.24956632  0.50000000  0.75151846
   0.75043368  0.50000000  0.75151846
   0.24943299  1.00000000  0.24968410
   0.75056701  1.00000000  0.24968410
   0.24956632  0.50000000  0.24848154
   0.75043368  0.50000000  0.24848154
   0.00000000  0.24943299  0.24968410
   0.50000000  0.24956632  0.24848154
   0.00000000  0.75056701  0.24968410
   0.50000000  0.75043368  0.24848154
   0.00000000  1.00000000  0.00000000
Direct configuration=    19
   0.24876692  0.24876692  0.85707812
   0.75123308  0.24876692  0.85707812
   0.24876692  0.75123308  0.85707812
   0.75123308  0.75123308  0.85707812
   0.00000000  0.00000000  0.64382037
   0.50000000  0.00000000  0.64468703
   0.00000000  0.50000000  0.64468703
   0.50000000  0.50000000  0.64563961
   0.00000000  0.00000000  0.35617963
   0.50000000  0.00000000  0.35531297
   0.00000000  0.50000000  0.35531297
   0.50000000  0.50000000  0.35436039
   0.24876692  0.24876692  0.14292188
   0.75123308  0.24876692  0.14292188
   0.24876692  0.75123308  0.14292188
   0.75123308  0.75123308  0.14292188
   0.50000000  0.00000000  0.00000000
   0.00000000  0.50000000  0.00000000
   0.50000000  0.50000000  0.00000000
   0.25038673  0.25038673  0.50000000
   0.74961327  0.25038673  0.50000000
   0.25038673  0.74961327  0.50000000
   0.74961327  0.74961327  0.50000000
   0.00000000  0.24943297  0.75031590
   0.50000000  0.24956631  0.75151840
   0.00000000  0.75056703  0.75031590
   0.50000000  0.75043369  0.75151840
   0.24943297  0.00000000  0.75031590
   0.75056703  0.00000000  0.75031590
   0.24956631  0.50000000  0.75151840
   0.75043369  0.50000000  0.75151840
   0.24943297  0.00000000  0.24968410
   0.75056703  0.00000000  0.24968410
   0.24956631  0.50000000  0.24848160
   0.75043369  0.50000000  0.24848160
   0.00000000  0.24943297  0.24968410
   0.50000000  0.24956631  0.24848160
   0.00000000  0.75056703  0.24968410
   0.50000000  0.75043369  0.24848160
   0.00000000  0.00000000  0.00000000
Direct configuration=    20
   0.24876692  0.24876692  0.85707812
   0.75123308  0.24876692  0.85707812
   0.24876692  0.75123308  0.85707812
   0.75123308  0.75123308  0.85707812
   0.00000000  1.00000000  0.64382037
   0.50000000  1.00000000  0.64468702
   0.00000000  0.50000000  0.64468702
   0.50000000  0.50000000  0.64563957
   0.00000000  1.00000000  0.35617963