  40  40   0   0
  0.2017692E+02  0.7996962E-09  0.7996962E-09  0.1262016E-08  0.5000000E-15
  1.000000000000000E-004
  CAR 
 unknown system                          
     11.90415107    -18.87663047  301      5.89003906      1.00000000
    -18.877  0.0000E+00  0.0000E+00
    -18.774  0.0000E+00  0.0000E+00
    -18.671  0.0000E+00  0.0000E+00
    -18.569  0.0000E+00  0.0000E+00
    -18.466  0.0000E+00  0.0000E+00
    -18.364  0.0000E+00  0.0000E+00
    -18.261  0.0000E+00  0.0000E+00
    -18.158  0.0000E+00  0.0000E+00
    -18.056  0.0000E+00  0.0000E+00
    -17.953  0.0000E+00  0.0000E+00
    -17.851  0.0000E+00  0.0000E+00
    -17.748  0.1210E-14  0.1242E-15
    -17.645  0.2404E-06  0.2467E-07
    -17.543  0.1846E-01  0.1894E-02
    -17.440  0.1383E+01  0.1438E+00
    -17.338  0.3981E+01  0.5523E+00
    -17.235  0.9519E+01  0.1529E+01
    -17.132  0.6920E+00  0.1600E+01
    -17.030  0.1194E-03  0.1600E+01
    -16.927  0.9316E-11  0.1600E+01
    -16.825  0.0000E+00  0.1600E+01
    -16.722  0.0000E+00  0.1600E+01
    -16.619  0.0000E+00  0.1600E+01
    -16.517  0.0000E+00  0.1600E+01
    -16.414  0.0000E+00  0.1600E+01
    -16.312  0.0000E+00  0.1600E+01
    -16.209  0.0000E+00  0.1600E+01
    -16.106  0.0000E+00  0.1600E+01
    -16.004  0.0000E+00  0.1600E+01
    -15.901  0.0000E+00  0.1600E+01
    -15.799  0.0000E+00  0.1600E+01
    -15.696  0.0000E+00  0.1600E+01
    -15.593  0.0000E+00  0.1600E+01
    -15.491  0.0000E+00  0.1600E+01
    -15.388  0.0000E+00  0.1600E+01
    -15.286  0.0000E+00  0.1600E+01
    -15.183  0.0000E+00  0.1600E+01
    -15.080  0.0000E+00  0.1600E+01
    -14.978  0.0000E+00  0.1600E+01
    -14.875  0.0000E+00  0.1600E+01
    -14.773  0.0000E+00  0.1600E+01
    -14.670  0.0000E+00  0.1600E+01
    -14.567  0.0000E+00  0.1600E+01
    -14.465  0.0000E+00  0.1600E+01
    -14.362  0.0000E+00  0.1600E+01
    -14.260  0.0000E+00  0.1600E+01
    -14.157  0.0000E+00  0.1600E+01
    -14.054  0.0000E+00  0.1600E+01
    -13.952  0.0000E+00  0.1600E+01
    -13.849  0.0000E+00  0.1600E+01
    -13.747  0.2931E-17  0.1600E+01
    -13.644  0.1235E-08  0.1600E+01
    -13.541  0.1795E-03  0.1600E+01
    -13.439  0.1787E-01  0.1602E+01
    -13.336  0.8657E-01  0.1611E+01
    -13.233  0.1032E+00  0.1621E+01
    -13.131  0.3555E-01  0.1625E+01
    -13.028  0.1681E+00  0.1642E+01
    -12.926  0.9985E-01  0.1652E+01
    -12.823  0.3500E-01  0.1656E+01
    -12.720  0.1280E+00  0.1669E+01
    -12.618  0.2087E+00  0.1691E+01
    -12.515  0.7691E-01  0.1698E+01
    -12.413  0.1347E+00  0.1712E+01
    -12.310  0.5606E-01  0.1718E+01
    -12.207  0.3310E+00  0.1752E+01
    -12.105  0.2061E+00  0.1773E+01
    -12.002  0.2111E+00  0.1795E+01
    -11.900  0.2261E+00  0.1818E+01
    -11.797  0.3786E+00  0.1857E+01
    -11.694  0.4833E-01  0.1862E+01
    -11.592  0.1946E+00  0.1882E+01
    -11.489  0.1602E+00  0.1898E+01
    -11.387  0.1391E+00  0.1913E+01
    -11.284  0.7089E-01  0.1920E+01
    -11.181  0.2142E-02  0.1920E+01
    -11.079  0.2203E-06  0.1920E+01
    -10.976  0.7922E-14  0.1920E+01
    -10.874  0.0000E+00  0.1920E+01
    -10.771  0.0000E+00  0.1920E+01
    -10.668  0.0000E+00  0.1920E+01
    -10.566  0.0000E+00  0.1920E+01
    -10.463  0.0000E+00  0.1920E+01
    -10.361  0.0000E+00  0.1920E+01
    -10.258  0.0000E+00  0.1920E+01
    -10.155  0.0000E+00  0.1920E+01
    -10.053  0.0000E+00  0.1920E+01
     -9.950  0.0000E+00  0.1920E+01
     -9.848  0.0000E+00  0.1920E+01
     -9.745  0.0000E+00  0.1920E+01
     -9.642  0.0000E+00  0.1920E+01
     -9.540  0.0000E+00  0.1920E+01
     -9.437  0.0000E+00  0.1920E+01
     -9.335  0.0000E+00  0.1920E+01
     -9.232  0.0000E+00  0.1920E+01
     -9.129  0.0000E+00  0.1920E+01
     -9.027  0.0000E+00  0.1920E+01
     -8.924  0.0000E+00  0.1920E+01
     -8.822  0.0000E+00  0.1920E+01
     -8.719  0.0000E+00  0.1920E+01
     -8.616  0.0000E+00  0.1920E+01
     -8.514  0.0000E+00  0.1920E+01
     -8.411  0.0000E+00  0.1920E+01
     -8.309  0.0000E+00  0.1920E+01
     -8.206  0.0000E+00  0.1920E+01
     -8.103  0.0000E+00  0.1920E+01
     -8.001  0.0000E+00  0.1920E+01
     -7.898  0.0000E+00  0.1920E+01
     -7.796  0.0000E+00  0.1920E+01
     -7.693  0.0000E+00  0.1920E+01
     -7.590  0.0000E+00  0.1920E+01
     -7.488  0.0000E+00  0.1920E+01
     -7.385  0.0000E+00  0.1920E+01
     -7.283  0.0000E+00  0.1920E+01
     -7.180  0.0000E+00  0.1920E+01
     -7.077  0.0000E+00  0.1920E+01
     -6.975  0.0000E+00  0.1920E+01
     -6.872  0.4084E-12  0.1920E+01
     -6.770  0.1103E-05  0.1920E+01
     -6.667  0.1188E-02  0.1920E+01
     -6.564  0.1193E-01  0.1921E+01
     -6.462  0.3988E-01  0.1925E+01
     -6.359  0.4720E-01  0.1930E+01
     -6.257  0.3998E-01  0.1934E+01
     -6.154  0.1146E+00  0.1946E+01
     -6.051  0.9623E-01  0.1956E+01
     -5.949  0.8287E-01  0.1965E+01
     -5.846  0.1037E+00  0.1975E+01
     -5.743  0.1352E+00  0.1989E+01
     -5.641  0.1338E+00  0.2003E+01
     -5.538  0.1614E+00  0.2019E+01
     -5.436  0.1447E+00  0.2034E+01
     -5.333  0.1863E+00  0.2053E+01
     -5.230  0.1577E+00  0.2069E+01
     -5.128  0.1186E+00  0.2082E+01
     -5.025  0.1692E+00  0.2099E+01
     -4.923  0.3256E+00  0.2132E+01
     -4.820  0.2858E+00  0.2162E+01
     -4.717  0.4511E+00  0.2208E+01
     -4.615  0.3457E+00  0.2243E+01
     -4.512  0.9363E-01  0.2253E+01
     -4.410  0.1367E+00  0.2267E+01
     -4.307  0.2301E+00  0.2291E+01
     -4.204  0.1372E+00  0.2305E+01
     -4.102  0.8529E-01  0.2314E+01
     -3.999  0.9892E-01  0.2324E+01
     -3.897  0.9633E-01  0.2334E+01
     -3.794  0.1156E+00  0.2345E+01
     -3.691  0.1988E-01  0.2347E+01
     -3.589  0.8875E-04  0.2348E+01
     -3.486  0.5240E-01  0.2353E+01
     -3.384  0.1484E+00  0.2368E+01
     -3.281  0.7986E-01  0.2376E+01
     -3.178  0.1862E-01  0.2378E+01
     -3.076  0.3317E-01  0.2382E+01
     -2.973  0.3647E-01  0.2385E+01
     -2.871  0.6546E-01  0.2392E+01
     -2.768  0.2154E-01  0.2394E+01
     -2.665  0.3586E-01  0.2398E+01
     -2.563  0.8687E-02  0.2399E+01
     -2.460  0.7426E-02  0.2400E+01
     -2.358  0.3575E-02  0.2400E+01
     -2.255  0.1091E-03  0.2400E+01
     -2.152  0.2755E-08  0.2400E+01
     -2.050  0.2119E-16  0.2400E+01
     -1.947  0.0000E+00  0.2400E+01
     -1.845  0.0000E+00  0.2400E+01
     -1.742  0.0000E+00  0.2400E+01
     -1.639  0.0000E+00  0.2400E+01
     -1.537  0.0000E+00  0.2400E+01
     -1.434  0.0000E+00  0.2400E+01
     -1.332  0.0000E+00  0.2400E+01
     -1.229  0.0000E+00  0.2400E+01
     -1.126  0.0000E+00  0.2400E+01
     -1.024  0.0000E+00  0.2400E+01
     -0.921  0.0000E+00  0.2400E+01
     -0.819  0.0000E+00  0.2400E+01
     -0.716  0.0000E+00  0.2400E+01
     -0.613  0.0000E+00  0.2400E+01
     -0.511  0.0000E+00  0.2400E+01
     -0.408  0.0000E+00  0.2400E+01
     -0.306  0.4509E-18  0.2400E+01
     -0.203  0.3004E-09  0.2400E+01
     -0.100  0.6490E-04  0.2400E+01
      0.002  0.1194E-01  0.2401E+01
      0.105  0.5314E-01  0.2407E+01
      0.207  0.2073E+00  0.2428E+01
      0.310  0.2874E+00  0.2457E+01
      0.413  0.3689E+00  0.2495E+01
      0.515  0.3534E+00  0.2532E+01
      0.618  0.1767E+00  0.2550E+01
      0.720  0.1346E+00  0.2563E+01
      0.823  0.3158E+00  0.2596E+01
      0.926  0.2020E+00  0.2617E+01
      1.028  0.1702E+00  0.2634E+01
      1.131  0.1379E+00  0.2648E+01
      1.233  0.3414E+00  0.2683E+01
      1.336  0.1828E+00  0.2702E+01
      1.439  0.8343E-01  0.2711E+01
      1.541  0.1408E+00  0.2725E+01
      1.644  0.3575E+00  0.2762E+01
      1.746  0.3100E+00  0.2794E+01
      1.849  0.2574E+00  0.2820E+01
      1.952  0.2563E+00  0.2846E+01
      2.054  0.2966E+00  0.2877E+01
      2.157  0.3036E+00  0.2908E+01
      2.260  0.4223E+00  0.2951E+01
      2.362  0.3618E+00  0.2988E+01
      2.465  0.2349E+00  0.3012E+01
      2.567  0.1915E+00  0.3032E+01
      2.670  0.3487E+00  0.3068E+01
      2.773  0.2197E+00  0.3090E+01
      2.875  0.1093E+00  0.3102E+01
      2.978  0.2105E+00  0.3123E+01
      3.080  0.3539E+00  0.3159E+01
      3.183  0.5011E+00  0.3211E+01
      3.286  0.2579E+00  0.3237E+01
      3.388  0.2913E+00  0.3267E+01
      3.491  0.2745E+00  0.3295E+01
      3.593  0.3120E+00  0.3327E+01
      3.696  0.1290E+00  0.3341E+01
      3.799  0.2321E+00  0.3364E+01
      3.901  0.1796E+00  0.3383E+01
      4.004  0.1368E+00  0.3397E+01
      4.106  0.1377E+00  0.3411E+01
      4.209  0.1468E+00  0.3426E+01
      4.312  0.1676E+00  0.3443E+01
      4.414  0.1640E+00  0.3460E+01
      4.517  0.1563E+00  0.3476E+01
      4.619  0.3366E+00  0.3511E+01
      4.722  0.5889E+00  0.3571E+01
      4.825  0.6042E+00  0.3633E+01
      4.927  0.4555E+00  0.3680E+01
      5.030  0.3529E+00  0.3716E+01
      5.132  0.2405E+00  0.3741E+01
      5.235  0.1980E+00  0.3761E+01
      5.338  0.3311E+00  0.3795E+01
      5.440  0.2171E+00  0.3817E+01
      5.543  0.8496E-01  0.3826E+01
      5.645  0.4956E-01  0.3831E+01
      5.748  0.6272E-01  0.3838E+01
      5.851  0.2338E-01  0.3840E+01
      5.953  0.1776E-02  0.3840E+01
      6.056  0.2958E-02  0.3840E+01
      6.158  0.4132E-02  0.3841E+01
      6.261  0.4007E-02  0.3841E+01
      6.364  0.2400E-03  0.3841E+01
      6.466  0.8330E-02  0.3842E+01
      6.569  0.1123E-01  0.3843E+01
      6.671  0.5679E-03  0.3843E+01
      6.774  0.9099E-02  0.3844E+01
      6.877  0.3298E-01  0.3848E+01
      6.979  0.3144E-01  0.3851E+01
      7.082  0.5915E-01  0.3857E+01
      7.184  0.5155E-01  0.3862E+01
      7.287  0.6832E-01  0.3869E+01
      7.390  0.1133E+00  0.3881E+01
      7.492  0.7724E-01  0.3889E+01
      7.595  0.1358E+00  0.3903E+01
      7.697  0.5520E-01  0.3908E+01
      7.800  0.8577E-01  0.3917E+01
      7.903  0.1481E+00  0.3932E+01
      8.005  0.3842E+00  0.3972E+01
      8.108  0.2008E+00  0.3992E+01
      8.210  0.2163E+00  0.4015E+01
      8.313  0.2938E+00  0.4045E+01
      8.416  0.2841E+00  0.4074E+01
      8.518  0.1436E+00  0.4089E+01
      8.621  0.2320E+00  0.4112E+01
      8.723  0.1903E+00  0.4132E+01
      8.826  0.2547E+00  0.4158E+01
      8.929  0.3151E+00  0.4190E+01
      9.031  0.2382E+00  0.4215E+01
      9.134  0.2676E+00  0.4242E+01
      9.236  0.3588E+00  0.4279E+01
      9.339  0.3245E+00  0.4312E+01
      9.442  0.2539E+00  0.4338E+01
      9.544  0.2151E+00  0.4361E+01
      9.647  0.2939E+00  0.4391E+01
      9.749  0.2165E+00  0.4413E+01
      9.852  0.1559E+00  0.4429E+01
      9.955  0.2412E+00  0.4454E+01
     10.057  0.1509E+00  0.4469E+01
     10.160  0.3345E+00  0.4503E+01
     10.263  0.5257E+00  0.4557E+01
     10.365  0.4030E+00  0.4599E+01
     10.468  0.2769E+00  0.4627E+01
     10.570  0.1231E+00  0.4640E+01
     10.673  0.2051E-02  0.4640E+01
     10.776  0.4613E-07  0.4640E+01
     10.878  0.3823E-15  0.4640E+01
     10.981  0.0000E+00  0.4640E+01
     11.083  0.0000E+00  0.4640E+01
     11.186  0.0000E+00  0.4640E+01
     11.289  0.0000E+00  0.4640E+01
     11.391  0.0000E+00  0.4640E+01
     11.494  0.0000E+00  0.4640E+01
     11.596  0.0000E+00  0.4640E+01
     11.699  0.0000E+00  0.4640E+01
     11.802  0.0000E+00  0.4640E+01
     11.904  0.0000E+00  0.4640E+01
