 running   36 mpi-ranks, on    1 nodes
 distrk:  each k-point on   36 cores,    1 groups
 distr:  one band on    9 cores,    4 groups
 vasp.6.4.3 19Mar24 (build Apr 09 2025 20:43:19) complex                        
  
 POSCAR found type information on POSCAR BiSeO S 
 POSCAR found :  4 types and      40 ions
 scaLAPACK will be used
 -----------------------------------------------------------------------------
|                                                                             |
|               ----> ADVICE to this user running VASP <----                  |
|                                                                             |
|     You have a (more or less) 'large supercell' and for larger cells it     |
|     might be more efficient to use real-space projection operators.         |
|     Therefore, try LREAL= Auto in the INCAR file.                           |
|     Mind: For very accurate calculation, you might also keep the            |
|     reciprocal projection scheme (i.e. LREAL=.FALSE.).                      |
|                                                                             |
 -----------------------------------------------------------------------------

 LDA part: xc-table for (Slater+PW92), standard interpolation
 POSCAR, INCAR and KPOINTS ok, starting setup
 FFT: planning ... GRIDC
 FFT: planning ... GRID_SOFT
 FFT: planning ... GRID
 WAVECAR not read
 entering main loop
       N       E                     dE             d eps       ncg     rms          rms(c)
DAV:   1     0.546463083491E+04    0.54646E+04   -0.17642E+05  5568   0.193E+03
DAV:   2     0.904897524081E+03   -0.45597E+04   -0.44225E+04  5592   0.553E+02
DAV:   3    -0.122028657236E+03   -0.10269E+04   -0.95893E+03  6240   0.255E+02
DAV:   4    -0.238177017075E+03   -0.11615E+03   -0.11232E+03  6568   0.788E+01
DAV:   5    -0.244098028764E+03   -0.59210E+01   -0.58503E+01  6856   0.169E+01    0.346E+01
DAV:   6    -0.209168504906E+03    0.34930E+02   -0.16156E+02  7552   0.487E+01    0.156E+01
DAV:   7    -0.207983995647E+03    0.11845E+01   -0.29298E+01  6168   0.121E+01    0.810E+00
DAV:   8    -0.208156734319E+03   -0.17274E+00   -0.64747E+00  7104   0.491E+00    0.343E+00
DAV:   9    -0.208091783337E+03    0.64951E-01   -0.54034E-01  7104   0.232E+00    0.147E+00
DAV:  10    -0.208082724018E+03    0.90593E-02   -0.18417E-01  7040   0.130E+00    0.396E-01
DAV:  11    -0.208085121849E+03   -0.23978E-02   -0.20760E-02  7328   0.289E-01    0.320E-01
DAV:  12    -0.208086273500E+03   -0.11517E-02   -0.64282E-03  7424   0.173E-01    0.140E-01
DAV:  13    -0.208086306038E+03   -0.32537E-04   -0.55469E-04  6448   0.800E-02    0.783E-02
DAV:  14    -0.208086268711E+03    0.37327E-04   -0.25706E-04  6680   0.328E-02    0.359E-02
DAV:  15    -0.208086258218E+03    0.10492E-04   -0.42839E-05  8272   0.131E-02    0.159E-02
DAV:  16    -0.208086256135E+03    0.20836E-05   -0.42060E-06  6664   0.603E-03    0.845E-03
DAV:  17    -0.208086255005E+03    0.11296E-05   -0.62496E-06  7272   0.511E-03    0.290E-03
DAV:  18    -0.208086254903E+03    0.10209E-06   -0.79169E-07  5704   0.224E-03    0.667E-04
DAV:  19    -0.208086255034E+03   -0.13082E-06   -0.11564E-07  5880   0.863E-04    0.111E-03
DAV:  20    -0.208086255022E+03    0.11360E-07   -0.21300E-08  4472   0.417E-04    0.662E-04
DAV:  21    -0.208086255058E+03   -0.35448E-07   -0.23516E-08  4368   0.357E-04    0.152E-04
DAV:  22    -0.208086255090E+03   -0.31689E-07   -0.28046E-09  3352   0.175E-04    0.442E-05
DAV:  23    -0.208086255088E+03    0.12951E-08   -0.98786E-10  3360   0.114E-04
   1 F= -.20808626E+03 E0= -.20808625E+03  d E =-.208086E+03
 curvature:   0.00 expect dE= 0.000E+00 dE for cont linesearch  0.000E+00
 trial: gam= 0.00000 g(F)=  0.295E+00 g(S)=  0.000E+00 ort = 0.000E+00 (trialstep = 0.100E+01)
 search vector abs. value=  0.295E+00
 bond charge predicted
       N       E                     dE             d eps       ncg     rms          rms(c)
DAV:   1    -0.207961840114E+03    0.12441E+00   -0.99585E+01  6664   0.174E+01    0.105E+00
DAV:   2    -0.208273254701E+03   -0.31141E+00   -0.34443E+00  7816   0.512E+00    0.710E-01
DAV:   3    -0.208268897030E+03    0.43577E-02   -0.41819E-02  6784   0.654E-01    0.453E-01
DAV:   4    -0.208264356651E+03    0.45404E-02   -0.13845E-02  7176   0.435E-01    0.170E-01
DAV:   5    -0.208264070678E+03    0.28597E-03   -0.24156E-03  8128   0.195E-01    0.896E-02
DAV:   6    -0.208264132362E+03   -0.61685E-04   -0.42752E-04  7224   0.591E-02    0.564E-02
DAV:   7    -0.208264128265E+03    0.40973E-05   -0.12693E-04  6832   0.449E-02    0.210E-02
DAV:   8    -0.208264124346E+03    0.39193E-05   -0.25910E-05  6960   0.135E-02    0.516E-03
DAV:   9    -0.208264125857E+03   -0.15112E-05   -0.37544E-06  7048   0.578E-03    0.210E-03
DAV:  10    -0.208264126399E+03   -0.54162E-06   -0.40590E-07  7880   0.204E-03    0.127E-03
DAV:  11    -0.208264126713E+03   -0.31436E-06   -0.11238E-07  6352   0.129E-03    0.583E-04
DAV:  12    -0.208264126749E+03   -0.36149E-07   -0.34154E-08  4784   0.495E-04    0.320E-04
DAV:  13    -0.208264126764E+03   -0.15219E-07   -0.32650E-09  3320   0.293E-04    0.117E-04
DAV:  14    -0.208264126779E+03   -0.14919E-07   -0.20099E-09  3272   0.166E-04    0.367E-05
DAV:  15    -0.208264126790E+03   -0.10698E-07   -0.58215E-10  3216   0.936E-05    0.169E-05
DAV:  16    -0.208264126797E+03   -0.66821E-08   -0.27989E-10  3224   0.678E-05
   2 F= -.20826413E+03 E0= -.20826411E+03  d E =-.177872E+00
 trial-energy change:   -0.177872  1 .order   -0.177483   -0.295176   -0.059790
 step:   1.2540(harm=  1.2540)  dis= 0.03751  next Energy=  -208.271332 (dE=-0.185E+00)
 bond charge predicted
       N       E                     dE             d eps       ncg     rms          rms(c)
DAV:   1    -0.208256609674E+03    0.75171E-02   -0.64238E+00  6680   0.436E+00    0.230E-01
DAV:   2    -0.208271996163E+03   -0.15386E-01   -0.17357E-01  7784   0.115E+00    0.165E-01
DAV:   3    -0.208271878269E+03    0.11789E-03   -0.29986E-03  6704   0.158E-01    0.990E-02
DAV:   4    -0.208271702705E+03    0.17556E-03   -0.66834E-04  7560   0.846E-02    0.388E-02
DAV:   5    -0.208271689104E+03    0.13601E-04   -0.71883E-05  7728   0.351E-02    0.188E-02
DAV:   6    -0.208271689772E+03   -0.66741E-06   -0.22959E-05  7176   0.136E-02    0.103E-02
DAV:   7    -0.208271688393E+03    0.13784E-05   -0.49411E-06  6472   0.740E-03    0.520E-03
DAV:   8    -0.208271687970E+03    0.42336E-06   -0.11376E-06  7032   0.287E-03    0.123E-03
DAV:   9    -0.208271688191E+03   -0.22125E-06   -0.19102E-07  5568   0.110E-03    0.446E-04
DAV:  10    -0.208271688321E+03   -0.12982E-06   -0.14650E-08  3920   0.444E-04    0.308E-04
DAV:  11    -0.208271688398E+03   -0.77058E-07   -0.76350E-09  3304   0.325E-04    0.167E-04
DAV:  12    -0.208271688425E+03   -0.27341E-07   -0.25455E-09  3224   0.212E-04    0.808E-05
DAV:  13    -0.208271688428E+03   -0.23902E-08   -0.97101E-10  3200   0.152E-04
   3 F= -.20827169E+03 E0= -.20827165E+03  d E =-.185433E+00
 curvature:  -0.63 expect dE=-0.501E-04 dE for cont linesearch -0.574E-06
 ZBRENT: interpolating
 opt :   1.2518  next Energy=  -208.271689 (dE=-0.185E+00)
 bond charge predicted
       N       E                     dE             d eps       ncg     rms          rms(c)
DAV:   1    -0.208271687885E+03    0.54089E-06   -0.47746E-04  6760   0.376E-02    0.180E-03
DAV:   2    -0.208271688948E+03   -0.10635E-05   -0.11958E-05  7768   0.927E-03    0.132E-03
DAV:   3    -0.208271688897E+03    0.51300E-07   -0.20232E-07  6736   0.131E-03    0.772E-04
DAV:   4    -0.208271688828E+03    0.68479E-07   -0.30423E-08  4272   0.562E-04    0.318E-04
DAV:   5    -0.208271688835E+03   -0.67694E-08   -0.11552E-08  3120   0.305E-04
   4 F= -.20827169E+03 E0= -.20827166E+03  d E =-.185434E+00
 curvature:  -0.62 expect dE=-0.489E-04 dE for cont linesearch -0.134E-08
 ZBRENT: interpolating
 opt :   1.2519  next Energy=  -208.271689 (dE=-0.185E+00)
 bond charge predicted
       N       E                     dE             d eps       ncg     rms          rms(c)
DAV:   1    -0.208271688856E+03   -0.27211E-07   -0.10065E-06  5224   0.176E-03    0.135E-04
DAV:   2    -0.208271688867E+03   -0.11432E-07   -0.27788E-08  3760   0.564E-04    0.774E-05
DAV:   3    -0.208271688873E+03   -0.56361E-08   -0.33942E-09  3056   0.272E-04    0.431E-05
DAV:   4    -0.208271688878E+03   -0.51232E-08   -0.16393E-09  3048   0.156E-04    0.267E-05
DAV:   5    -0.208271688878E+03   -0.75306E-09   -0.65205E-10  3040   0.125E-04
   5 F= -.20827169E+03 E0= -.20827166E+03  d E =-.185434E+00
 curvature:  -0.59 expect dE=-0.466E-04 dE for cont linesearch -0.196E-08
 ZBRENT: interpolating
 opt :   1.2519  next Energy=  -208.271689 (dE=-0.185E+00)
 bond charge predicted
       N       E                     dE             d eps       ncg     rms          rms(c)
DAV:   1    -0.208271688876E+03    0.15571E-08   -0.30029E-07  4360   0.963E-04    0.544E-05
DAV:   2    -0.208271688877E+03   -0.10068E-08   -0.67083E-09  3040   0.304E-04    0.380E-05
DAV:   3    -0.208271688874E+03    0.34352E-08   -0.17708E-09  3048   0.201E-04    0.211E-05
DAV:   4    -0.208271688874E+03    0.10914E-09   -0.74951E-10  3040   0.120E-04    0.151E-05
DAV:   5    -0.208271688875E+03   -0.13570E-08   -0.37514E-10  3048   0.864E-05
   6 F= -.20827169E+03 E0= -.20827166E+03  d E =-.185434E+00
 curvature:  -0.17 expect dE=-0.136E-04 dE for cont linesearch -0.315E-09
 ZBRENT: bisectioning
 opt :   1.2519  next Energy=  -208.271689 (dE=-0.185E+00)
 bond charge predicted
       N       E                     dE             d eps       ncg     rms          rms(c)
DAV:   1    -0.208271688875E+03   -0.13561E-08   -0.73589E-08  3992   0.482E-04    0.321E-05
DAV:   2    -0.208271688874E+03    0.10059E-08   -0.16533E-09  3048   0.171E-04    0.227E-05
DAV:   3    -0.208271688877E+03   -0.28904E-08   -0.52200E-10  3024   0.115E-04    0.107E-05
DAV:   4    -0.208271688876E+03    0.68121E-09   -0.25048E-10  3024   0.630E-05    0.894E-06
DAV:   5    -0.208271688877E+03   -0.43292E-09   -0.11850E-10  3024   0.495E-05
   7 F= -.20827169E+03 E0= -.20827166E+03  d E =-.185434E+00
 curvature:  -0.35 expect dE=-0.273E-04 dE for cont linesearch -0.142E-09
 trial: gam= 0.00030 g(F)=  0.787E-04 g(S)=  0.000E+00 ort =-0.110E-04 (trialstep = 0.105E+01)
 search vector abs. value=  0.787E-04
 bond charge predicted
       N       E                     dE             d eps       ncg     rms          rms(c)
DAV:   1    -0.208271684721E+03    0.41549E-05   -0.26053E-02  6120   0.312E-01    0.167E-02
DAV:   2    -0.208271744612E+03   -0.59890E-04   -0.70707E-04  8040   0.798E-02    0.128E-02
DAV:   3    -0.208271745153E+03   -0.54179E-06   -0.26120E-05  6576   0.181E-02    0.864E-03
DAV:   4    -0.208271744368E+03    0.78584E-06   -0.46751E-06  7312   0.626E-03    0.426E-03
DAV:   5    -0.208271743992E+03    0.37596E-06   -0.44817E-07  7104   0.389E-03    0.255E-03
DAV:   6    -0.208271743950E+03    0.41962E-07   -0.64213E-07  6928   0.219E-03    0.133E-03
DAV:   7    -0.208271743984E+03   -0.34460E-07   -0.16842E-07  7328   0.172E-03    0.116E-03
DAV:   8    -0.208271743984E+03    0.28012E-09   -0.19717E-08  3952   0.636E-04
   8 F= -.20827174E+03 E0= -.20827171E+03  d E =-.551072E-04
 trial-energy change:   -0.000055  1 .order   -0.000055   -0.000083   -0.000027
 step:   1.5540(harm=  1.5670)  dis= 0.00063  next Energy=  -208.271751 (dE=-0.617E-04)
 bond charge predicted
       N       E                     dE             d eps       ncg     rms          rms(c)
DAV:   1    -0.208271737151E+03    0.68335E-05   -0.59889E-03  6136   0.150E-01    0.808E-03
DAV:   2    -0.208271750996E+03   -0.13845E-04   -0.16339E-04  8072   0.383E-02    0.624E-03
DAV:   3    -0.208271751101E+03   -0.10547E-06   -0.60117E-06  6576   0.873E-03    0.420E-03
DAV:   4    -0.208271750910E+03    0.19097E-06   -0.11253E-06  7288   0.304E-03    0.206E-03
DAV:   5    -0.208271750821E+03    0.89518E-07   -0.10362E-07  6928   0.190E-03    0.124E-03
DAV:   6    -0.208271750811E+03    0.10339E-07   -0.15236E-07  6376   0.106E-03    0.633E-04
DAV:   7    -0.208271750820E+03   -0.91604E-08   -0.36705E-08  5080   0.856E-04
   9 F= -.20827175E+03 E0= -.20827172E+03  d E =-.619432E-04
 curvature:  -0.78 expect dE=-0.145E-04 dE for cont linesearch -0.107E-07
 trial: gam= 0.22200 g(F)=  0.185E-04 g(S)=  0.000E+00 ort = 0.104E-05 (trialstep = 0.115E+01)
 search vector abs. value=  0.228E-04
 bond charge predicted
       N       E                     dE             d eps       ncg     rms          rms(c)
DAV:   1    -0.208271754059E+03   -0.32482E-05   -0.56360E-03  5584   0.160E-01    0.137E-02
DAV:   2    -0.208271770911E+03   -0.16852E-04   -0.18163E-04  7040   0.320E-02    0.609E-03
DAV:   3    -0.208271770669E+03    0.24239E-06   -0.46289E-06  7128   0.574E-03    0.426E-03
DAV:   4    -0.208271770325E+03    0.34412E-06   -0.68729E-07  5768   0.320E-03    0.193E-03
DAV:   5    -0.208271770294E+03    0.30786E-07   -0.34472E-07  7096   0.180E-03    0.680E-04
DAV:   6    -0.208271770305E+03   -0.10976E-07   -0.82142E-08  6304   0.887E-04    0.437E-04
DAV:   7    -0.208271770308E+03   -0.33206E-08   -0.18416E-08  3680   0.428E-04
  10 F= -.20827177E+03 E0= -.20827174E+03  d E =-.194882E-04
 ZBRENT: can't locate minimum, use default step
 trial-energy change:   -0.000019  1 .order   -0.000019   -0.000022   -0.000017
 step:   4.6044(harm=  5.9087)  dis= 0.00103  next Energy=  -208.271806 (dE=-0.554E-04)
 bond charge predicted
       N       E                     dE             d eps       ncg     rms          rms(c)
DAV:   1    -0.208271657870E+03    0.11244E-03   -0.50732E-02  5568   0.480E-01    0.409E-02
DAV:   2    -0.208271809347E+03   -0.15148E-03   -0.16328E-03  7040   0.962E-02    0.182E-02
DAV:   3    -0.208271807144E+03    0.22030E-05   -0.41641E-05  7176   0.172E-02    0.128E-02
DAV:   4    -0.208271804166E+03    0.29783E-05   -0.60840E-06  8072   0.915E-03    0.572E-03
DAV:   5    -0.208271803881E+03    0.28493E-06   -0.28225E-06  7408   0.586E-03    0.195E-03
DAV:   6    -0.208271803974E+03   -0.92867E-07   -0.80185E-07  6688   0.298E-03    0.130E-03
DAV:   7    -0.208271803988E+03   -0.13832E-07   -0.13363E-07  6656   0.115E-03    0.966E-04
DAV:   8    -0.208271803984E+03    0.34470E-08   -0.19434E-08  3856   0.766E-04
  11 F= -.20827180E+03 E0= -.20827177E+03  d E =-.531647E-04
 curvature:  -3.33 expect dE=-0.761E-04 dE for cont linesearch -0.273E-05
 trial: gam= 1.01662 g(F)=  0.228E-04 g(S)=  0.000E+00 ort = 0.432E-05 (trialstep = 0.762E+00)
 search vector abs. value=  0.552E-04
 bond charge predicted
       N       E                     dE             d eps       ncg     rms          rms(c)
DAV:   1    -0.208271805240E+03   -0.12518E-05   -0.54398E-03  5576   0.163E-01    0.134E-02
DAV:   2    -0.208271820971E+03   -0.15731E-04   -0.17796E-04  7224   0.350E-02    0.617E-03
DAV:   3    -0.208271820929E+03    0.42189E-07   -0.68611E-06  7032   0.711E-03    0.432E-03
DAV:   4    -0.208271820682E+03    0.24705E-06   -0.65324E-07  7800   0.342E-03    0.229E-03
DAV:   5    -0.208271820600E+03    0.81783E-07   -0.29000E-07  7024   0.347E-03    0.742E-04
DAV:   6    -0.208271820630E+03   -0.30112E-07   -0.32719E-07  6144   0.173E-03    0.567E-04
DAV:   7    -0.208271820630E+03    0.50750E-09   -0.17624E-08  3576   0.470E-04
  12 F= -.20827182E+03 E0= -.20827179E+03  d E =-.166451E-04
 trial-energy change:   -0.000017  1 .order   -0.000017   -0.000021   -0.000012
 step:   1.9109(harm=  1.9109)  dis= 0.00075  next Energy=  -208.271830 (dE=-0.260E-04)
 bond charge predicted
       N       E                     dE             d eps       ncg     rms          rms(c)
DAV:   1    -0.208271795199E+03    0.25431E-04   -0.12386E-02  5568   0.245E-01    0.203E-02
DAV:   2    -0.208271830983E+03   -0.35784E-04   -0.40470E-04  7264   0.532E-02    0.929E-03
DAV:   3    -0.208271830885E+03    0.97779E-07   -0.15516E-05  7040   0.107E-02    0.651E-03
DAV:   4    -0.208271830305E+03    0.58030E-06   -0.14960E-06  7776   0.495E-03    0.343E-03
DAV:   5    -0.208271830115E+03    0.18953E-06   -0.68578E-07  7968   0.514E-03    0.111E-03
DAV:   6    -0.208271830180E+03   -0.64741E-07   -0.68498E-07  6144   0.252E-03    0.845E-04
DAV:   7    -0.208271830180E+03    0.28376E-09   -0.45945E-08  5344   0.722E-04
  13 F= -.20827183E+03 E0= -.20827179E+03  d E =-.261950E-04
 curvature:  -1.94 expect dE=-0.169E-04 dE for cont linesearch -0.179E-08
 trial: gam= 0.64654 g(F)=  0.872E-05 g(S)=  0.000E+00 ort = 0.226E-06 (trialstep = 0.992E+00)
 search vector abs. value=  0.321E-04
 bond charge predicted
       N       E                     dE             d eps       ncg     rms          rms(c)
DAV:   1    -0.208271827731E+03    0.24491E-05   -0.29382E-03  5616   0.965E-02    0.126E-02
DAV:   2    -0.208271838145E+03   -0.10414E-04   -0.11284E-04  7016   0.209E-02    0.459E-03
DAV:   3    -0.208271837945E+03    0.19975E-06   -0.26008E-06  7744   0.404E-03    0.342E-03
DAV:   4    -0.208271837746E+03    0.19897E-06   -0.56840E-07  6088   0.209E-03    0.133E-03
DAV:   5    -0.208271837751E+03   -0.48940E-08   -0.16801E-07  5920   0.109E-03    0.371E-04
DAV:   6    -0.208271837757E+03   -0.61555E-08   -0.29604E-08  4624   0.594E-04
  14 F= -.20827184E+03 E0= -.20827180E+03  d E =-.757785E-05
 trial-energy change:   -0.000008  1 .order   -0.000008   -0.000009   -0.000006
 step:   3.4996(harm=  3.4996)  dis= 0.00135  next Energy=  -208.271846 (dE=-0.155E-04)
 bond charge predicted
       N       E                     dE             d eps       ncg     rms          rms(c)
DAV:   1    -0.208271782689E+03    0.55062E-04   -0.18795E-02  5616   0.244E-01    0.319E-02
DAV:   2    -0.208271849028E+03   -0.66339E-04   -0.71926E-04  7032   0.530E-02    0.115E-02
DAV:   3    -0.208271847732E+03    0.12957E-05   -0.16563E-05  7784   0.102E-02    0.855E-03
DAV:   4    -0.208271846473E+03    0.12590E-05   -0.36513E-06  6104   0.519E-03    0.329E-03
DAV:   5    -0.208271846518E+03   -0.45228E-07   -0.10440E-06  6752   0.267E-03    0.902E-04
DAV:   6    -0.208271846540E+03   -0.21834E-07   -0.17067E-07  5352   0.122E-03    0.705E-04
DAV:   7    -0.208271846536E+03    0.41027E-08   -0.26002E-08  4144   0.671E-04
  15 F= -.20827185E+03 E0= -.20827181E+03  d E =-.163564E-04
 curvature:  -6.34 expect dE=-0.297E-04 dE for cont linesearch -0.448E-07
 trial: gam= 0.11682 g(F)=  0.469E-05 g(S)=  0.000E+00 ort = 0.476E-06 (trialstep = 0.149E+01)
 search vector abs. value=  0.524E-05
 bond charge predicted
       N       E                     dE             d eps       ncg     rms          rms(c)
DAV:   1    -0.208271842993E+03    0.35471E-05   -0.33355E-03  6176   0.107E-01    0.652E-03
DAV:   2    -0.208271850837E+03   -0.78438E-05   -0.88410E-05  7720   0.283E-02    0.393E-03
DAV:   3    -0.208271850955E+03   -0.11818E-06   -0.34614E-06  6640   0.672E-03    0.273E-03
DAV:   4    -0.208271850867E+03    0.88014E-07   -0.58667E-07  6592   0.221E-03    0.132E-03
DAV:   5    -0.208271850834E+03    0.32876E-07   -0.63938E-08  7064   0.165E-03    0.743E-04
DAV:   6    -0.208271850828E+03    0.58135E-08   -0.57679E-08  5744   0.984E-04
  16 F= -.20827185E+03 E0= -.20827182E+03  d E =-.429233E-05
 trial-energy change:   -0.000004  1 .order   -0.000004   -0.000007   -0.000001
 step:   1.8304(harm=  1.8554)  dis= 0.00041  next Energy=  -208.271851 (dE=-0.445E-05)
 bond charge predicted
       N       E                     dE             d eps       ncg     rms          rms(c)
DAV:   1    -0.208271850623E+03    0.21063E-06   -0.17059E-04  6208   0.243E-02    0.155E-03
DAV:   2    -0.208271851033E+03   -0.40933E-06   -0.46690E-06  7688   0.658E-03    0.906E-04
DAV:   3    -0.208271851046E+03   -0.13254E-07   -0.18538E-07  7104   0.178E-03    0.643E-04
DAV:   4    -0.208271851041E+03    0.52096E-08   -0.33016E-08  4512   0.558E-04    0.331E-04
DAV:   5    -0.208271851041E+03   -0.59754E-09   -0.45314E-09  3472   0.569E-04
  17 F= -.20827185E+03 E0= -.20827182E+03  d E =-.450550E-05
 curvature:  -1.02 expect dE=-0.225E-05 dE for cont linesearch -0.170E-08
 trial: gam= 0.46571 g(F)=  0.221E-05 g(S)=  0.000E+00 ort = 0.934E-07 (trialstep = 0.156E+01)
 search vector abs. value=  0.343E-05
 bond charge predicted
       N       E                     dE             d eps       ncg     rms          rms(c)
DAV:   1    -0.208271847903E+03    0.31382E-05   -0.24238E-03  6064   0.918E-02    0.513E-03
DAV:   2    -0.208271853893E+03   -0.59904E-05   -0.63249E-05  7504   0.225E-02    0.248E-03
DAV:   3    -0.208271853945E+03   -0.52132E-07   -0.14373E-06  7912   0.460E-03    0.162E-03
DAV:   4    -0.208271853958E+03   -0.12501E-07   -0.17999E-07  6816   0.125E-03    0.924E-04
DAV:   5    -0.208271853953E+03    0.42946E-08   -0.19539E-08  4816   0.142E-03
  18 F= -.20827185E+03 E0= -.20827182E+03  d E =-.291196E-05
 trial-energy change:   -0.000003  1 .order   -0.000003   -0.000004   -0.000002
 step:   2.8234(harm=  3.8484)  dis= 0.00052  next Energy=  -208.271855 (dE=-0.381E-05)
 bond charge predicted
       N       E                     dE             d eps       ncg     rms          rms(c)
DAV:   1    -0.208271851383E+03    0.25744E-05   -0.15878E-03  6064   0.743E-02    0.418E-03
DAV:   2    -0.208271855271E+03   -0.38877E-05   -0.41201E-05  7496   0.181E-02    0.203E-03
DAV:   3    -0.208271855306E+03   -0.34688E-07   -0.91732E-07  7856   0.357E-03    0.128E-03
DAV:   4    -0.208271855320E+03   -0.14485E-07   -0.11090E-07  6672   0.981E-04    0.738E-04
DAV:   5    -0.208271855318E+03    0.17244E-08   -0.12536E-08  4312   0.117E-03
  19 F= -.20827186E+03 E0= -.20827182E+03  d E =-.427701E-05
 curvature:  -2.34 expect dE=-0.306E-05 dE for cont linesearch -0.291E-06
 ZBRENT: increasing intervall
 opt :   5.3489  next Energy=  -208.271855 (dE=-0.419E-05)
 bond charge predicted
       N       E                     dE             d eps       ncg     rms          rms(c)
DAV:   1    -0.208271839589E+03    0.15731E-04   -0.63482E-03  6064   0.149E-01    0.834E-03
DAV:   2    -0.208271855258E+03   -0.15669E-04   -0.16548E-04  7504   0.364E-02    0.405E-03
DAV:   3    -0.208271855400E+03   -0.14156E-06   -0.37490E-06  7888   0.742E-03    0.259E-03
DAV:   4    -0.208271855412E+03   -0.12090E-07   -0.45677E-07  6912   0.198E-03    0.148E-03
DAV:   5    -0.208271855400E+03    0.11792E-07   -0.59565E-08  6072   0.224E-03    0.613E-04
DAV:   6    -0.208271855411E+03   -0.10943E-07   -0.92322E-08  6936   0.110E-03    0.456E-04
DAV:   7    -0.208271855409E+03    0.21255E-08   -0.14781E-08  3568   0.581E-04
  20 F= -.20827186E+03 E0= -.20827182E+03  d E =-.436735E-05
 curvature:   0.67 expect dE= 0.300E-05 dE for cont linesearch  0.913E-07
 ZBRENT: bracketing found
 ZBRENT: interpolating
 opt :   4.0581  next Energy=  -208.271856 (dE=-0.468E-05)
 bond charge predicted
       N       E                     dE             d eps       ncg     rms          rms(c)
DAV:   1    -0.208271851673E+03    0.37374E-05   -0.16566E-03  6056   0.759E-02    0.425E-03
DAV:   2    -0.208271855793E+03   -0.41195E-05   -0.43323E-05  7488   0.187E-02    0.205E-03
DAV:   3    -0.208271855824E+03   -0.30892E-07   -0.97992E-07  8008   0.394E-03    0.134E-03
DAV:   4    -0.208271855794E+03    0.29988E-07   -0.13030E-07  6872   0.103E-03    0.759E-04
DAV:   5    -0.208271855784E+03    0.97643E-08   -0.11879E-08  4360   0.116E-03
  21 F= -.20827186E+03 E0= -.20827182E+03  d E =-.474281E-05
 curvature:  -2.97 expect dE=-0.711E-05 dE for cont linesearch -0.567E-08
 trial: gam= 1.10710 g(F)=  0.240E-05 g(S)=  0.000E+00 ort = 0.810E-07 (trialstep = 0.104E+01)
 search vector abs. value=  0.679E-05
 bond charge predicted
       N       E                     dE             d eps       ncg     rms          rms(c)
DAV:   1    -0.208271852574E+03    0.32199E-05   -0.19651E-03  5832   0.897E-02    0.500E-03
DAV:   2    -0.208271857476E+03   -0.49015E-05   -0.53460E-05  7536   0.215E-02    0.255E-03
DAV:   3    -0.208271857512E+03   -0.36278E-07   -0.14527E-06  7448   0.397E-03    0.174E-03
DAV:   4    -0.208271857493E+03    0.18963E-07   -0.16054E-07  6816   0.140E-03    0.985E-04
DAV:   5    -0.208271857489E+03    0.38772E-08   -0.32654E-08  5208   0.143E-03
  22 F= -.20827186E+03 E0= -.20827182E+03  d E =-.170481E-05
 trial-energy change:   -0.000002  1 .order   -0.000002   -0.000003   -0.000001
 step:   1.3578(harm=  1.4316)  dis= 0.00025  next Energy=  -208.271858 (dE=-0.181E-05)
 bond charge predicted
       N       E                     dE             d eps       ncg     rms          rms(c)
DAV:   1    -0.208271857228E+03    0.26471E-06   -0.17977E-04  5920   0.271E-02    0.159E-03
DAV:   2    -0.208271857663E+03   -0.43450E-06   -0.48891E-06  7568   0.632E-03    0.814E-04
DAV:   3    -0.208271857668E+03   -0.52769E-08   -0.11254E-07  7488   0.111E-03    0.504E-04
DAV:   4    -0.208271857670E+03   -0.15607E-08   -0.16265E-08  3712   0.423E-04    0.290E-04
DAV:   5    -0.208271857673E+03   -0.32787E-08   -0.52627E-09  3544   0.555E-04
  23 F= -.20827186E+03 E0= -.20827182E+03  d E =-.188860E-05
 curvature:  -1.88 expect dE=-0.456E-06 dE for cont linesearch -0.244E-07
 ZBRENT: increasing intervall
 opt :   1.9879  next Energy=  -208.271858 (dE=-0.184E-05)
 bond charge predicted
       N       E                     dE             d eps       ncg     rms          rms(c)
DAV:   1    -0.208271855782E+03    0.18875E-05   -0.71774E-04  5856   0.542E-02    0.306E-03
DAV:   2    -0.208271857563E+03   -0.17810E-05   -0.19515E-05  7576   0.129E-02    0.155E-03
DAV:   3    -0.208271857576E+03   -0.12580E-07   -0.51808E-07  7368   0.230E-03    0.103E-03
DAV:   4    -0.208271857570E+03    0.57098E-08   -0.57041E-08  6296   0.857E-04    0.582E-04
DAV:   5    -0.208271857569E+03    0.12697E-08   -0.10273E-08  4008   0.845E-04
  24 F= -.20827186E+03 E0= -.20827182E+03  d E =-.178439E-05
 curvature:   4.02 expect dE= 0.258E-05 dE for cont linesearch  0.297E-06
 ZBRENT: bracketing found
 ZBRENT: interpolating
 opt :   1.5437  next Energy=  -208.271858 (dE=-0.192E-05)
 bond charge predicted
       N       E                     dE             d eps       ncg     rms          rms(c)
DAV:   1    -0.208271856814E+03    0.75622E-06   -0.35644E-04  5832   0.382E-02    0.212E-03
DAV:   2    -0.208271857705E+03   -0.89105E-06   -0.96864E-06  7536   0.931E-03    0.110E-03
DAV:   3    -0.208271857715E+03   -0.10808E-07   -0.28060E-07  7256   0.172E-03    0.763E-04
DAV:   4    -0.208271857705E+03    0.10007E-07   -0.24930E-08  4480   0.615E-04    0.433E-04
DAV:   5    -0.208271857700E+03    0.50586E-08   -0.97287E-09  3920   0.666E-04
  25 F= -.20827186E+03 E0= -.20827182E+03  d E =-.191622E-05
 curvature:  -0.37 expect dE=-0.785E-07 dE for cont linesearch -0.469E-09
 ZBRENT: interpolating
 opt :   1.6182  next Energy=  -208.271858 (dE=-0.192E-05)
 bond charge predicted
       N       E                     dE             d eps       ncg     rms          rms(c)
DAV:   1    -0.208271857677E+03    0.28040E-07   -0.10008E-05  5864   0.643E-03    0.366E-04
DAV:   2    -0.208271857706E+03   -0.28425E-07   -0.27810E-07  7440   0.173E-03    0.210E-04
DAV:   3    -0.208271857705E+03    0.11714E-08   -0.76457E-09  3000   0.330E-04    0.143E-04
DAV:   4    -0.208271857703E+03    0.12060E-08   -0.14256E-09  2936   0.219E-04    0.782E-05
DAV:   5    -0.208271857704E+03   -0.38744E-09   -0.14111E-09  2888   0.170E-04
  26 F= -.20827186E+03 E0= -.20827182E+03  d E =-.191968E-05
 curvature:  -3.05 expect dE=-0.888E-06 dE for cont linesearch -0.730E-08
 ZBRENT: interpolating
 opt :   1.5750  next Energy=  -208.271858 (dE=-0.192E-05)
 bond charge predicted
       N       E                     dE             d eps       ncg     rms          rms(c)
DAV:   1    -0.208271857697E+03    0.64938E-08   -0.33459E-06  5880   0.371E-03    0.210E-04
DAV:   2    -0.208271857707E+03   -0.97189E-08   -0.87840E-08  6456   0.861E-04    0.103E-04
DAV:   3    -0.208271857705E+03    0.15725E-08   -0.27033E-09  2952   0.164E-04    0.666E-05
DAV:   4    -0.208271857706E+03   -0.38835E-09   -0.70766E-10  2928   0.109E-04    0.337E-05
DAV:   5    -0.208271857705E+03    0.88403E-09   -0.44018E-10  2928   0.852E-05
  27 F= -.20827186E+03 E0= -.20827182E+03  d E =-.192045E-05
 curvature:  -0.60 expect dE=-0.144E-06 dE for cont linesearch -0.697E-10
 trial: gam= 0.11618 g(F)=  0.238E-06 g(S)=  0.000E+00 ort = 0.280E-07 (trialstep = 0.115E+01)
 search vector abs. value=  0.336E-06
 bond charge predicted
       N       E                     dE             d eps       ncg     rms          rms(c)
DAV:   1    -0.208271857813E+03   -0.10705E-06   -0.38686E-05  5640   0.117E-02    0.136E-03
DAV:   2    -0.208271857937E+03   -0.12435E-06   -0.14397E-06  7152   0.324E-03    0.549E-04
DAV:   3    -0.208271857935E+03    0.18235E-08   -0.47636E-08  5680   0.719E-04    0.442E-04
DAV:   4    -0.208271857928E+03    0.69695E-08   -0.14581E-08  3688   0.492E-04    0.223E-04
DAV:   5    -0.208271857926E+03    0.16280E-08   -0.34475E-09  3272   0.297E-04
  28 F= -.20827186E+03 E0= -.20827182E+03  d E =-.221855E-06
 trial-energy change:   -0.000000  1 .order   -0.000000   -0.000000   -0.000000
 step:   3.3046(harm=  3.3046)  dis= 0.00013  next Energy=  -208.271858 (dE=-0.399E-06)
 bond charge predicted
       N       E                     dE             d eps       ncg     rms          rms(c)
DAV:   1    -0.208271857656E+03    0.27208E-06   -0.13576E-04  5648   0.219E-02    0.255E-03
DAV:   2    -0.208271858092E+03   -0.43564E-06   -0.50368E-06  7784   0.602E-03    0.102E-03
DAV:   3    -0.208271858087E+03    0.45711E-08   -0.17321E-07  7224   0.136E-03    0.826E-04
DAV:   4    -0.208271858074E+03    0.13356E-07   -0.42888E-08  5648   0.642E-04    0.411E-04
DAV:   5    -0.208271858071E+03    0.32460E-08   -0.60723E-09  3576   0.305E-04
  29 F= -.20827186E+03 E0= -.20827182E+03  d E =-.365872E-06
 curvature:  -2.30 expect dE=-0.152E-06 dE for cont linesearch -0.937E-09
 trial: gam= 0.31492 g(F)=  0.661E-07 g(S)=  0.000E+00 ort =-0.117E-07 (trialstep = 0.158E+01)
 search vector abs. value=  0.922E-07
 bond charge predicted
       N       E                     dE             d eps       ncg     rms          rms(c)
DAV:   1    -0.208271858059E+03    0.14473E-07   -0.31142E-05  5608   0.120E-02    0.110E-03
DAV:   2    -0.208271858164E+03   -0.10515E-06   -0.11085E-06  6984   0.250E-03    0.443E-04
DAV:   3    -0.208271858166E+03   -0.13497E-08   -0.24110E-08  4568   0.479E-04    0.311E-04
DAV:   4    -0.208271858174E+03   -0.82200E-08   -0.63248E-09  3240   0.346E-04    0.127E-04
DAV:   5    -0.208271858174E+03   -0.35652E-09   -0.29147E-09  3104   0.240E-04
  30 F= -.20827186E+03 E0= -.20827182E+03  d E =-.103853E-06
 trial-energy change:   -0.000000  1 .order   -0.000000   -0.000000   -0.000000
 step:   5.5409(harm=  5.5409)  dis= 0.00010  next Energy=  -208.271858 (dE=-0.173E-06)
 bond charge predicted
       N       E                     dE             d eps       ncg     rms          rms(c)
DAV:   1    -0.208271857660E+03    0.51400E-06   -0.19552E-04  5600   0.300E-02    0.283E-03
DAV:   2    -0.208271858301E+03   -0.64120E-06   -0.68989E-06  7160   0.633E-03    0.107E-03
DAV:   3    -0.208271858300E+03    0.10496E-08   -0.16626E-07  6864   0.126E-03    0.762E-04
DAV:   4    -0.208271858310E+03   -0.93987E-08   -0.37003E-08  4960   0.530E-04    0.330E-04
DAV:   5    -0.208271858307E+03    0.20791E-08   -0.81573E-09  3408   0.344E-04
  31 F= -.20827186E+03 E0= -.20827182E+03  d E =-.236965E-06
 curvature:  -4.09 expect dE=-0.459E-06 dE for cont linesearch -0.125E-09
 trial: gam= 1.56019 g(F)=  0.112E-06 g(S)=  0.000E+00 ort = 0.168E-08 (trialstep = 0.640E+00)
 search vector abs. value=  0.342E-06
 bond charge predicted
       N       E                     dE             d eps       ncg     rms          rms(c)
DAV:   1    -0.208271858293E+03    0.16348E-07   -0.24612E-05  5568   0.107E-02    0.991E-04
DAV:   2    -0.208271858371E+03   -0.77634E-07   -0.82893E-07  6664   0.214E-03    0.363E-04
DAV:   3    -0.208271858366E+03    0.48803E-08   -0.19183E-08  4120   0.414E-04    0.240E-04
DAV:   4    -0.208271858354E+03    0.12174E-07   -0.48210E-09  3320   0.350E-04    0.830E-05
DAV:   5    -0.208271858353E+03    0.53660E-09   -0.41026E-09  3080   0.220E-04
  32 F= -.20827186E+03 E0= -.20827182E+03  d E =-.457740E-07
 trial-energy change:   -0.000000  1 .order   -0.000000   -0.000000   -0.000000
 step:   2.0844(harm=  2.0844)  dis= 0.00006  next Energy=  -208.271858 (dE=-0.120E-06)
 bond charge predicted
       N       E                     dE             d eps       ncg     rms          rms(c)
DAV:   1    -0.208271858022E+03    0.33131E-06   -0.12624E-04  5568   0.243E-02    0.215E-03
DAV:   2    -0.208271858429E+03   -0.40619E-06   -0.42983E-06  7032   0.502E-03    0.868E-04
DAV:   3    -0.208271858424E+03    0.49467E-08   -0.11472E-07  6944   0.949E-04    0.601E-04
DAV:   4    -0.208271858396E+03    0.27572E-07   -0.14992E-08  4088   0.456E-04    0.233E-04
DAV:   5    -0.208271858394E+03    0.23829E-08   -0.10357E-08  3368   0.302E-04
  33 F= -.20827186E+03 E0= -.20827182E+03  d E =-.862856E-07
 curvature:  -3.10 expect dE=-0.630E-07 dE for cont linesearch -0.272E-09
 ZBRENT: interpolating
 opt :   1.9914  next Energy=  -208.271858 (dE=-0.865E-07)
 bond charge predicted
       N       E                     dE             d eps       ncg     rms          rms(c)
DAV:   1    -0.208271858399E+03   -0.33288E-08   -0.52083E-07  5704   0.158E-03    0.102E-04
DAV:   2    -0.208271858405E+03   -0.58326E-08   -0.17141E-08  3536   0.361E-04    0.760E-05
DAV:   3    -0.208271858403E+03    0.18254E-08   -0.17347E-09  3024   0.193E-04    0.598E-05
DAV:   4    -0.208271858406E+03   -0.27612E-08   -0.53642E-10  2960   0.102E-04    0.455E-05
DAV:   5    -0.208271858407E+03   -0.55752E-09   -0.24691E-10  2976   0.877E-05
  34 F= -.20827186E+03 E0= -.20827182E+03  d E =-.993232E-07
 curvature:  -2.90 expect dE=-0.487E-07 dE for cont linesearch -0.501E-09
 ZBRENT: interpolating
 opt :   2.0457  next Energy=  -208.271858 (dE=-0.864E-07)
 bond charge predicted
       N       E                     dE             d eps       ncg     rms          rms(c)
DAV:   1    -0.208271858405E+03    0.93132E-09   -0.17816E-07  5408   0.913E-04    0.826E-05
DAV:   2    -0.208271858406E+03   -0.21737E-09   -0.54797E-09  2952   0.202E-04    0.286E-05
DAV:   3    -0.208271858405E+03    0.30468E-09   -0.69754E-10  2952   0.117E-04    0.202E-05
DAV:   4    -0.208271858404E+03    0.88767E-09   -0.15188E-10  2952   0.651E-05    0.162E-05
DAV:   5    -0.208271858405E+03   -0.52205E-09   -0.81528E-11  2936   0.373E-05
  35 F= -.20827186E+03 E0= -.20827182E+03  d E =-.973814E-07
 curvature:  -0.61 expect dE=-0.116E-07 dE for cont linesearch -0.559E-11
 trial: gam= 0.29349 g(F)=  0.189E-07 g(S)=  0.000E+00 ort = 0.176E-08 (trialstep = 0.921E+00)
 search vector abs. value=  0.495E-07
 bond charge predicted
       N       E                     dE             d eps       ncg     rms          rms(c)
DAV:   1    -0.208271858392E+03    0.12798E-07   -0.84912E-06  5568   0.649E-03    0.518E-04
DAV:   2    -0.208271858417E+03   -0.25290E-07   -0.27849E-07  6832   0.137E-03    0.232E-04
DAV:   3    -0.208271858415E+03    0.15025E-08   -0.89562E-09  3528   0.296E-04    0.151E-04
DAV:   4    -0.208271858413E+03    0.26903E-08   -0.17763E-09  3128   0.251E-04    0.748E-05
DAV:   5    -0.208271858413E+03   -0.55479E-10   -0.18726E-09  3024   0.150E-04
  36 F= -.20827186E+03 E0= -.20827182E+03  d E =-.783257E-08
 trial-energy change:   -0.000000  1 .order   -0.000000   -0.000000   -0.000000
 step:   1.3170(harm=  1.3170)  dis= 0.00001  next Energy=  -208.271858 (dE=-0.128E-07)
 bond charge predicted
       N       E                     dE             d eps       ncg     rms          rms(c)
DAV:   1    -0.208271858411E+03    0.11305E-08   -0.15756E-06  5584   0.280E-03    0.230E-04
DAV:   2    -0.208271858417E+03   -0.59408E-08   -0.50556E-08  5416   0.599E-04    0.978E-05
DAV:   3    -0.208271858414E+03    0.31796E-08   -0.29560E-09  3096   0.255E-04    0.621E-05
DAV:   4    -0.208271858417E+03   -0.24256E-08   -0.14563E-09  3024   0.161E-04    0.440E-05
DAV:   5    -0.208271858417E+03   -0.40836E-09   -0.64161E-10  2976   0.151E-04
  37 F= -.20827186E+03 E0= -.20827182E+03  d E =-.122418E-07
 curvature:  -1.68 expect dE=-0.888E-08 dE for cont linesearch -0.271E-10
 trial: gam= 0.37074 g(F)=  0.530E-08 g(S)=  0.000E+00 ort =-0.895E-09 (trialstep = 0.100E+01)
 search vector abs. value=  0.115E-07
 bond charge predicted
       N       E                     dE             d eps       ncg     rms          rms(c)
DAV:   1    -0.208271858414E+03    0.26985E-08   -0.20631E-06  5584   0.316E-03    0.263E-04
DAV:   2    -0.208271858420E+03   -0.59244E-08   -0.64850E-08  5216   0.649E-04    0.112E-04
DAV:   3    -0.208271858423E+03   -0.33078E-08   -0.31828E-09  3008   0.227E-04    0.755E-05
DAV:   4    -0.208271858421E+03    0.21637E-08   -0.97938E-10  2968   0.172E-04    0.463E-05
DAV:   5    -0.208271858421E+03   -0.16098E-09   -0.73441E-10  2928   0.111E-04
  38 F= -.20827186E+03 E0= -.20827182E+03  d E =-.412274E-08
 trial-energy change:   -0.000000  1 .order   -0.000000   -0.000000   -0.000000
 step:   1.0729(harm=  1.0729)  dis= 0.00001  next Energy=  -208.271858 (dE=-0.267E-08)
 bond charge predicted
       N       E                     dE             d eps       ncg     rms          rms(c)
DAV:   1    -0.208271858422E+03   -0.11114E-08   -0.11045E-08  3088   0.254E-04    0.337E-05
DAV:   2    -0.208271858422E+03    0.12187E-09   -0.11866E-09  2896   0.183E-04    0.124E-05
DAV:   3    -0.208271858423E+03   -0.67212E-09   -0.29654E-10  2848   0.849E-05    0.770E-06
DAV:   4    -0.208271858422E+03    0.63756E-09   -0.17810E-10  2824   0.515E-05    0.101E-05
DAV:   5    -0.208271858422E+03   -0.57298E-10   -0.78730E-11  2808   0.401E-05
  39 F= -.20827186E+03 E0= -.20827182E+03  d E =-.504315E-08
 curvature:  -1.24 expect dE=-0.913E-09 dE for cont linesearch -0.541E-11
 ZBRENT: increasing intervall
 opt :   1.2180  next Energy=  -208.271858 (dE=-0.506E-08)
 bond charge predicted
       N       E                     dE             d eps       ncg     rms          rms(c)
DAV:   1    -0.208271858423E+03   -0.12042E-08   -0.43730E-08  4272   0.465E-04    0.405E-05
DAV:   2    -0.208271858423E+03   -0.18372E-09   -0.18879E-09  2808   0.136E-04    0.149E-05
DAV:   3    -0.208271858423E+03    0.88767E-09   -0.35694E-10  2808   0.918E-05    0.110E-05
DAV:   4    -0.208271858423E+03   -0.78580E-09   -0.13286E-10  2800   0.477E-05    0.984E-06
DAV:   5    -0.208271858423E+03   -0.10732E-09   -0.71542E-11  2784   0.365E-05
  40 F= -.20827186E+03 E0= -.20827182E+03  d E =-.637920E-08
 curvature:  -3.73 expect dE=-0.274E-08 dE for cont linesearch -0.100E-10
 ZBRENT: increasing intervall
 opt :   1.5082  next Energy=  -208.271858 (dE=-0.642E-08)
 bond charge predicted
       N       E                     dE             d eps       ncg     rms          rms(c)
DAV:   1    -0.208271858423E+03    0.58753E-09   -0.17601E-07  5272   0.923E-04    0.765E-05
DAV:   2    -0.208271858424E+03   -0.16516E-08   -0.51151E-09  2784   0.201E-04    0.254E-05
DAV:   3    -0.208271858425E+03   -0.80036E-10   -0.73532E-10  2784   0.127E-04    0.192E-05
DAV:   4    -0.208271858425E+03   -0.22192E-09   -0.19965E-10  2784   0.640E-05    0.169E-05
DAV:   5    -0.208271858424E+03    0.39290E-09   -0.92216E-11  2784   0.455E-05
  41 F= -.20827186E+03 E0= -.20827182E+03  d E =-.724503E-08
 curvature: -13.84 expect dE=-0.115E-07 dE for cont linesearch -0.109E-09
 ZBRENT: bracketing found
 ZBRENT: interpolating
 opt :   1.3249  next Energy=  -208.271858 (dE=-0.639E-08)
 bond charge predicted
       N       E                     dE             d eps       ncg     rms          rms(c)
DAV:   1    -0.208271858424E+03    0.10941E-08   -0.68805E-08  4504   0.581E-04    0.507E-05
DAV:   2    -0.208271858425E+03   -0.93405E-09   -0.26432E-09  2784   0.144E-04    0.173E-05
DAV:   3    -0.208271858423E+03    0.15298E-08   -0.38301E-10  2784   0.864E-05    0.134E-05
DAV:   4    -0.208271858424E+03   -0.79854E-09   -0.11655E-10  2784   0.478E-05    0.111E-05
DAV:   5    -0.208271858424E+03    0.21282E-09   -0.59541E-11  2784   0.313E-05
  42 F= -.20827186E+03 E0= -.20827182E+03  d E =-.653381E-08
 curvature:  -1.19 expect dE=-0.644E-09 dE for cont linesearch -0.850E-10
 ZBRENT: interpolating
 opt :   1.4624  next Energy=  -208.271858 (dE=-0.725E-08)
 bond charge predicted
       N       E                     dE             d eps       ncg     rms          rms(c)
DAV:   1    -0.208271858423E+03    0.11350E-08   -0.38064E-08  4048   0.433E-04    0.405E-05
DAV:   2    -0.208271858423E+03   -0.63574E-09   -0.16979E-09  2784   0.132E-04    0.162E-05
DAV:   3    -0.208271858423E+03   -0.31832E-10   -0.30829E-10  2784   0.896E-05    0.103E-05
DAV:   4    -0.208271858424E+03   -0.81036E-09   -0.11486E-10  2784   0.443E-05    0.917E-06
DAV:   5    -0.208271858424E+03    0.36380E-11   -0.65158E-11  2784   0.354E-05
  43 F= -.20827186E+03 E0= -.20827182E+03  d E =-.708587E-08
 curvature:  -0.10 expect dE=-0.996E-10 dE for cont linesearch -0.154E-11
 ZBRENT: bisectioning
 opt :   1.3937  next Energy=  -208.271858 (dE=-0.712E-08)
 bond charge predicted
       N       E                     dE             d eps       ncg     rms          rms(c)
DAV:   1    -0.208271858424E+03    0.14643E-09   -0.90874E-09  2840   0.215E-04    0.232E-05
DAV:   2    -0.208271858423E+03    0.56752E-09   -0.64335E-10  2784   0.945E-05    0.918E-06
DAV:   3    -0.208271858424E+03   -0.36380E-09   -0.11202E-10  2784   0.532E-05    0.527E-06
DAV:   4    -0.208271858423E+03    0.34652E-09   -0.46181E-11  2784   0.265E-05    0.545E-06
DAV:   5    -0.208271858424E+03   -0.36471E-09   -0.22860E-11  2784   0.215E-05
  44 F= -.20827186E+03 E0= -.20827182E+03  d E =-.675755E-08
 curvature:  -2.26 expect dE=-0.102E-08 dE for cont linesearch -0.111E-09
 ZBRENT: interpolating
 opt :   1.4375  next Energy=  -208.271858 (dE=-0.709E-08)
 bond charge predicted
       N       E                     dE             d eps       ncg     rms          rms(c)
DAV:   1    -0.208271858424E+03   -0.90859E-09   -0.36809E-09  2784   0.136E-04    0.143E-05
DAV:   2    -0.208271858425E+03   -0.80763E-09   -0.26888E-10  2784   0.532E-05    0.520E-06
DAV:   3    -0.208271858425E+03    0.18554E-09   -0.47539E-11  2784   0.335E-05    0.351E-06
DAV:   4    -0.208271858424E+03    0.84219E-09   -0.23899E-11  2784   0.162E-05    0.326E-06
DAV:   5    -0.208271858426E+03   -0.15825E-08   -0.14267E-11  2784   0.120E-05
  45 F= -.20827186E+03 E0= -.20827182E+03  d E =-.866385E-08
 curvature:  -0.11 expect dE=-0.617E-10 dE for cont linesearch -0.146E-13
 trial: gam= 0.13004 g(F)=  0.568E-09 g(S)=  0.000E+00 ort =-0.394E-10 (trialstep = 0.109E+01)
 search vector abs. value=  0.851E-09
 bond charge predicted
       N       E                     dE             d eps       ncg     rms          rms(c)
DAV:   1    -0.208271858424E+03    0.65666E-09   -0.13622E-07  5144   0.806E-04    0.685E-05
DAV:   2    -0.208271858425E+03   -0.14697E-08   -0.38174E-09  2784   0.199E-04    0.236E-05
DAV:   3    -0.208271858424E+03    0.10587E-08   -0.72958E-10  2784   0.114E-04    0.192E-05
DAV:   4    -0.208271858424E+03   -0.54570E-10   -0.16504E-10  2784   0.709E-05    0.165E-05
DAV:   5    -0.208271858424E+03   -0.45384E-09   -0.12688E-10  2784   0.357E-05
  46 F= -.20827186E+03 E0= -.20827182E+03  d E =0.131968E-08
 trial-energy change:    0.000000  1 .order   -0.000000   -0.000000   -0.000000
 step:   1.6121(harm=  1.6121)  dis= 0.00000  next Energy=  -208.271858 (dE=-0.454E-09)
 bond charge predicted
       N       E                     dE             d eps       ncg     rms          rms(c)
DAV:   1    -0.208271858424E+03    0.30741E-09   -0.30969E-08  4160   0.391E-04    0.346E-05
DAV:   2    -0.208271858423E+03    0.46748E-09   -0.15617E-09  2816   0.123E-04    0.133E-05
DAV:   3    -0.208271858423E+03    0.39472E-09   -0.30214E-10  2784   0.819E-05    0.105E-05
DAV:   4    -0.208271858423E+03   -0.25466E-09   -0.12597E-10  2784   0.446E-05    0.103E-05
DAV:   5    -0.208271858423E+03    0.25648E-09   -0.64458E-11  2784   0.337E-05
  47 F= -.20827186E+03 E0= -.20827182E+03  d E =0.294494E-08
 curvature:  -1.22 expect dE=-0.582E-09 dE for cont linesearch -0.381E-11
 trial: gam= 1.07072 g(F)=  0.478E-09 g(S)=  0.000E+00 ort =-0.516E-10 (trialstep = 0.764E+00)
 search vector abs. value=  0.133E-08
 bond charge predicted
       N       E                     dE             d eps       ncg     rms          rms(c)
DAV:   1    -0.208271858424E+03   -0.71486E-09   -0.94896E-08  5152   0.664E-04    0.600E-05
DAV:   2    -0.208271858424E+03   -0.27285E-10   -0.28379E-09  2800   0.150E-04    0.181E-05
DAV:   3    -0.208271858424E+03   -0.45657E-09   -0.44153E-10  2784   0.927E-05    0.154E-05
DAV:   4    -0.208271858424E+03    0.14552E-10   -0.11136E-10  2784   0.518E-05    0.139E-05
DAV:   5    -0.208271858424E+03   -0.20191E-09   -0.51982E-11  2784   0.322E-05
  48 F= -.20827186E+03 E0= -.20827182E+03  d E =-.164255E-08
 trial-energy change:   -0.000000  1 .order   -0.000000   -0.000000    0.000000
 step:   0.6576(harm=  0.6576)  dis= 0.00000  next Energy=  -208.271858 (dE=-0.139E-09)
 bond charge predicted
       N       E                     dE             d eps       ncg     rms          rms(c)
DAV:   1    -0.208271858424E+03    0.80036E-10   -0.17561E-09  2784   0.978E-05    0.132E-05
DAV:   2    -0.208271858425E+03   -0.87039E-09   -0.16749E-10  2784   0.586E-05    0.480E-06
DAV:   3    -0.208271858424E+03    0.12578E-08   -0.34299E-11  2784   0.281E-05    0.256E-06
DAV:   4    -0.208271858424E+03   -0.11278E-09   -0.11512E-11  2784   0.145E-05    0.303E-06
DAV:   5    -0.208271858424E+03   -0.45384E-09   -0.71723E-12  2784   0.123E-05
  49 F= -.20827186E+03 E0= -.20827182E+03  d E =-.153977E-08
 curvature:  -1.03 expect dE=-0.166E-09 dE for cont linesearch -0.127E-10
 ZBRENT: interpolating
 opt :   0.7269  next Energy=  -208.271858 (dE=-0.164E-08)
 bond charge predicted
       N       E                     dE             d eps       ncg     rms          rms(c)
DAV:   1    -0.208271858424E+03   -0.42746E-09   -0.72042E-10  2784   0.588E-05    0.670E-06
DAV:   2    -0.208271858424E+03   -0.16553E-09   -0.63685E-11  2784   0.221E-05    0.213E-06
DAV:   3    -0.208271858424E+03    0.16280E-09   -0.12534E-11  2784   0.117E-05    0.165E-06
DAV:   4    -0.208271858424E+03   -0.27285E-11   -0.23761E-12  2784   0.752E-06    0.151E-06
DAV:   5    -0.208271858424E+03   -0.49113E-10   -0.72923E-12  2784   0.418E-06
  50 F= -.20827186E+03 E0= -.20827182E+03  d E =-.156797E-08
 curvature:  -0.10 expect dE=-0.858E-11 dE for cont linesearch -0.152E-14
 trial: gam= 0.16766 g(F)=  0.831E-10 g(S)=  0.000E+00 ort = 0.442E-11 (trialstep = 0.757E+00)
 search vector abs. value=  0.219E-09
 bond charge predicted
       N       E                     dE             d eps       ncg     rms          rms(c)
DAV:   1    -0.208271858424E+03   -0.72760E-10   -0.12886E-08  2872   0.232E-04    0.206E-05
DAV:   2    -0.208271858424E+03    0.58753E-09   -0.13507E-09  2784   0.115E-04    0.102E-05
DAV:   3    -0.208271858424E+03   -0.15643E-09   -0.29924E-10  2784   0.659E-05    0.838E-06
DAV:   4    -0.208271858425E+03   -0.70577E-09   -0.10968E-10  2784   0.465E-05    0.547E-06
DAV:   5    -0.208271858424E+03    0.47658E-09   -0.59289E-11  2784   0.273E-05
  51 F= -.20827186E+03 E0= -.20827182E+03  d E =0.178261E-09
 trial-energy change:    0.000000  1 .order   -0.000000   -0.000000    0.000000
 step:   0.4752(harm=  0.4752)  dis= 0.00000  next Energy=  -208.271858 (dE=-0.199E-10)
 bond charge predicted
       N       E                     dE             d eps       ncg     rms          rms(c)
DAV:   1    -0.208271858424E+03    0.19372E-09   -0.14893E-09  2784   0.869E-05    0.136E-05
DAV:   2    -0.208271858424E+03    0.12096E-09   -0.21295E-10  2784   0.747E-05    0.779E-06
DAV:   3    -0.208271858425E+03   -0.20918E-09   -0.63896E-11  2784   0.340E-05    0.256E-06
DAV:   4    -0.208271858424E+03    0.94587E-10   -0.30993E-11  2784   0.203E-05    0.376E-06
DAV:   5    -0.208271858425E+03   -0.64210E-09   -0.11819E-11  2784   0.173E-05
  52 F= -.20827186E+03 E0= -.20827182E+03  d E =-.740329E-09
 curvature:  -0.62 expect dE=-0.183E-09 dE for cont linesearch -0.703E-10
 ZBRENT: interpolating
 opt :   0.6892  next Energy=  -208.271858 (dE= 0.177E-09)
 bond charge predicted
       N       E                     dE             d eps       ncg     rms          rms(c)
DAV:   1    -0.208271858425E+03   -0.60027E-10   -0.89677E-10  2784   0.628E-05    0.729E-06
DAV:   2    -0.208271858425E+03   -0.27285E-10   -0.95881E-11  2784   0.353E-05    0.441E-06
DAV:   3    -0.208271858424E+03    0.28194E-09   -0.27384E-11  2784   0.238E-05    0.226E-06
DAV:   4    -0.208271858424E+03   -0.47294E-10   -0.12202E-11  2784   0.131E-05    0.161E-06
DAV:   5    -0.208271858425E+03   -0.52296E-09   -0.89426E-12  2784   0.946E-06
  53 F= -.20827186E+03 E0= -.20827182E+03  d E =-.473847E-09
 curvature:  -0.01 expect dE=-0.385E-12 dE for cont linesearch -0.688E-13
 trial: gam=-0.07576 g(F)=  0.260E-10 g(S)=  0.000E+00 ort = 0.319E-10 (trialstep = 0.743E+00)
 search vector abs. value=  0.122E-09
 reached required accuracy - stopping structural energy minimisation
