<?xml version="1.0" encoding="ISO-8859-1"?>
<modeling>
 <generator>
  <i name="program" type="string">vasp </i>
  <i name="version" type="string">6.4.3  </i>
  <i name="subversion" type="string">19Mar24 (build Apr 09 2025 20:43:19) complex                          parallel </i>
  <i name="platform" type="string">LinuxIFC </i>
  <i name="date" type="string">2025 04 14 </i>
  <i name="time" type="string">10:56:55 </i>
 </generator>
 <incar>
  <i type="string" name="PREC">Accurate</i>
  <i type="int" name="IALGO">    38</i>
  <i type="logical" name="ADDGRID"> T  </i>
  <i type="int" name="NELMIN">     5</i>
  <i type="int" name="IBRION">     2</i>
  <i name="EDIFF">      0.00000001</i>
  <i name="EDIFFG">     -0.00001000</i>
  <i type="int" name="NSW">   100</i>
  <i type="int" name="ISIF">     2</i>
  <i name="ENCUT">    520.00000000</i>
  <i type="logical" name="LREAL"> F  </i>
  <i type="int" name="ISMEAR">     0</i>
  <i name="SIGMA">      0.05000000</i>
  <i type="logical" name="LWAVE"> F  </i>
  <i type="logical" name="LCHARG"> F  </i>
 </incar>
 <primitive_cell>
  <structure name="primitive_cell" >
   <crystal>
    <varray name="basis" >
     <v>       7.99696223       0.00000000       0.00000000 </v>
     <v>       0.00000000       7.99696223       0.00000000 </v>
     <v>       0.00000000       0.00000000      12.62015584 </v>
    </varray>
    <i name="volume">    807.07669622 </i>
    <varray name="rec_basis" >
     <v>       0.12504748       0.00000000       0.00000000 </v>
     <v>       0.00000000       0.12504748       0.00000000 </v>
     <v>       0.00000000       0.00000000       0.07923832 </v>
    </varray>
   </crystal>
   <varray name="positions" >
    <v>       0.24891108       0.24891108       0.85428186 </v>
    <v>       0.75108892       0.24891108       0.85428186 </v>
    <v>       0.24891108       0.75108892       0.85428186 </v>
    <v>       0.75108892       0.75108892       0.85428186 </v>
    <v>       0.00000000       0.00000000       0.64671764 </v>
    <v>       0.50000000       0.00000000       0.64751587 </v>
    <v>       0.00000000       0.50000000       0.64751587 </v>
    <v>       0.50000000       0.50000000       0.64841730 </v>
    <v>       0.00000000       0.00000000       0.35328236 </v>
    <v>       0.50000000       0.00000000       0.35248413 </v>
    <v>       0.00000000       0.50000000       0.35248413 </v>
    <v>       0.50000000       0.50000000       0.35158270 </v>
    <v>       0.24891108       0.24891108       0.14571814 </v>
    <v>       0.75108892       0.24891108       0.14571814 </v>
    <v>       0.24891108       0.75108892       0.14571814 </v>
    <v>       0.75108892       0.75108892       0.14571814 </v>
    <v>       0.50000000       0.00000000       0.00000000 </v>
    <v>       0.00000000       0.50000000       0.00000000 </v>
    <v>       0.50000000       0.50000000       0.00000000 </v>
    <v>       0.25013764       0.25013764       0.50000000 </v>
    <v>       0.74986236       0.25013764       0.50000000 </v>
    <v>       0.25013764       0.74986236       0.50000000 </v>
    <v>       0.74986236       0.74986236       0.50000000 </v>
    <v>       0.00000000       0.24953518       0.75047350 </v>
    <v>       0.50000000       0.24967019       0.75139378 </v>
    <v>       0.00000000       0.75046482       0.75047350 </v>
    <v>       0.50000000       0.75032981       0.75139378 </v>
    <v>       0.24953518       0.00000000       0.75047350 </v>
    <v>       0.75046482       0.00000000       0.75047350 </v>
    <v>       0.24967019       0.50000000       0.75139378 </v>
    <v>       0.75032981       0.50000000       0.75139378 </v>
    <v>       0.24953518       0.00000000       0.24952650 </v>
    <v>       0.75046482       0.00000000       0.24952650 </v>
    <v>       0.24967019       0.50000000       0.24860622 </v>
    <v>       0.75032981       0.50000000       0.24860622 </v>
    <v>       0.00000000       0.24953518       0.24952650 </v>
    <v>       0.50000000       0.24967019       0.24860622 </v>
    <v>       0.00000000       0.75046482       0.24952650 </v>
    <v>       0.50000000       0.75032981       0.24860622 </v>
    <v>       0.00000000       0.00000000       0.00000000 </v>
   </varray>
  </structure>
  <varray name="primitive_index" >
   <v type="int" >        1 </v>
   <v type="int" >        2 </v>
   <v type="int" >        3 </v>
   <v type="int" >        4 </v>
   <v type="int" >        5 </v>
   <v type="int" >        6 </v>
   <v type="int" >        7 </v>
   <v type="int" >        8 </v>
   <v type="int" >        9 </v>
   <v type="int" >       10 </v>
   <v type="int" >       11 </v>
   <v type="int" >       12 </v>
   <v type="int" >       13 </v>
   <v type="int" >       14 </v>
   <v type="int" >       15 </v>
   <v type="int" >       16 </v>
   <v type="int" >       17 </v>
   <v type="int" >       18 </v>
   <v type="int" >       19 </v>
   <v type="int" >       20 </v>
   <v type="int" >       21 </v>
   <v type="int" >       22 </v>
   <v type="int" >       23 </v>
   <v type="int" >       24 </v>
   <v type="int" >       25 </v>
   <v type="int" >       26 </v>
   <v type="int" >       27 </v>
   <v type="int" >       28 </v>
   <v type="int" >       29 </v>
   <v type="int" >       30 </v>
   <v type="int" >       31 </v>
   <v type="int" >       32 </v>
   <v type="int" >       33 </v>
   <v type="int" >       34 </v>
   <v type="int" >       35 </v>
   <v type="int" >       36 </v>
   <v type="int" >       37 </v>
   <v type="int" >       38 </v>
   <v type="int" >       39 </v>
   <v type="int" >       40 </v>
  </varray>
 </primitive_cell>
 <kpoints>
  <generation param="Gamma">
   <v type="int" name="divisions">       4        4        3 </v>
   <v name="usershift">      0.00000000       0.00000000       0.00000000 </v>
   <v name="genvec1">      0.25000000       0.00000000       0.00000000 </v>
   <v name="genvec2">      0.00000000       0.25000000       0.00000000 </v>
   <v name="genvec3">      0.00000000       0.00000000       0.33333333 </v>
   <v name="shift">      0.00000000       0.00000000       0.00000000 </v>
  </generation>
  <varray name="kpointlist" >
   <v>       0.00000000       0.00000000       0.00000000 </v>
   <v>       0.25000000       0.00000000       0.00000000 </v>
   <v>       0.50000000       0.00000000       0.00000000 </v>
   <v>       0.25000000       0.25000000       0.00000000 </v>
   <v>       0.50000000       0.25000000       0.00000000 </v>
   <v>       0.50000000       0.50000000       0.00000000 </v>
   <v>       0.00000000       0.00000000       0.33333333 </v>
   <v>       0.25000000       0.00000000       0.33333333 </v>
   <v>       0.50000000       0.00000000       0.33333333 </v>
   <v>       0.25000000       0.25000000       0.33333333 </v>
   <v>       0.50000000       0.25000000       0.33333333 </v>
   <v>       0.50000000       0.50000000       0.33333333 </v>
  </varray>
  <varray name="weights" >
   <v>       0.02083333 </v>
   <v>       0.08333333 </v>
   <v>       0.04166667 </v>
   <v>       0.08333333 </v>
   <v>       0.08333333 </v>
   <v>       0.02083333 </v>
   <v>       0.04166667 </v>
   <v>       0.16666667 </v>
   <v>       0.08333333 </v>
   <v>       0.16666667 </v>
   <v>       0.16666667 </v>
   <v>       0.04166667 </v>
  </varray>
 </kpoints>
 <parameters>
  <separator name="general" >
   <i type="string" name="SYSTEM">unknown system</i>
   <i type="logical" name="LCOMPAT"> F  </i>
  </separator>
  <separator name="electronic" >
   <i type="string" name="PREC">accura</i>
   <i name="ENMAX">    520.00000000</i>
   <i name="ENAUG">    605.39200000</i>
   <i name="EDIFF">      0.00000001</i>
   <i type="int" name="IALGO">    38</i>
   <i type="int" name="IWAVPR">    11</i>
   <i type="int" name="NBANDS">   232</i>
   <i type="int" name="NBANDSLOW">    -1</i>
   <i type="int" name="NBANDSHIGH">    -1</i>
   <i name="NELECT">    384.00000000</i>
   <i type="int" name="TURBO">     0</i>
   <i type="int" name="IRESTART">     0</i>
   <i type="int" name="NREBOOT">     0</i>
   <i type="int" name="NMIN">     0</i>
   <i name="EREF">      0.00000000</i>
   <separator name="electronic smearing" >
    <i type="int" name="ISMEAR">     0</i>
    <i name="SIGMA">      0.05000000</i>
    <i name="KSPACING">      0.50000000</i>
    <i type="logical" name="KGAMMA"> T  </i>
    <i type="logical" name="KBLOWUP"> T  </i>
   </separator>
   <separator name="electronic projectors" >
    <i type="logical" name="LREAL"> F  </i>
    <v name="ROPT">      0.00000000      0.00000000      0.00000000      0.00000000</v>
    <i type="int" name="LMAXPAW">  -100</i>
    <i type="int" name="LMAXMIX">     2</i>
    <i type="logical" name="NLSPLINE"> F  </i>
   </separator>
   <separator name="electronic startup" >
    <i type="int" name="ISTART">     0</i>
    <i type="int" name="ICHARG">     2</i>
    <i type="int" name="INIWAV">     1</i>
   </separator>
   <separator name="electronic spin" >
    <i type="int" name="ISPIN">     1</i>
    <i type="logical" name="LNONCOLLINEAR"> F  </i>
    <v name="MAGMOM">      1.00000000      1.00000000      1.00000000      1.00000000      1.00000000      1.00000000      1.00000000      1.00000000      1.00000000      1.00000000      1.00000000      1.00000000      1.00000000      1.00000000      1.00000000      1.00000000      1.00000000      1.00000000      1.00000000      1.00000000
      1.00000000      1.00000000      1.00000000      1.00000000      1.00000000      1.00000000      1.00000000      1.00000000      1.00000000      1.00000000      1.00000000      1.00000000      1.00000000      1.00000000      1.00000000      1.00000000      1.00000000      1.00000000      1.00000000      1.00000000
</v>
    <i name="NUPDOWN">     -1.00000000</i>
    <i type="logical" name="LSORBIT"> F  </i>
    <v name="SAXIS">      0.00000000      0.00000000      1.00000000</v>
    <i type="logical" name="LSPIRAL"> F  </i>
    <v name="QSPIRAL">      0.00000000      0.00000000      0.00000000</v>
    <i type="logical" name="LZEROZ"> F  </i>
   </separator>
   <separator name="electronic exchange-correlation" >
    <i type="logical" name="LASPH"> F  </i>
   </separator>
   <separator name="electronic convergence" >
    <i type="int" name="NELM">    60</i>
    <i type="int" name="NELMDL">    -5</i>
    <i type="int" name="NELMIN">     5</i>
    <i name="ENINI">    520.00000000</i>
    <separator name="electronic convergence detail" >
     <i type="logical" name="LDIAG"> T  </i>
     <i type="logical" name="LSUBROT"> F  </i>
     <i name="WEIMIN">      0.00100000</i>
     <i name="EBREAK">      0.00000000</i>
     <i name="DEPER">      0.30000000</i>
     <i type="int" name="NRMM">     4</i>
     <i name="TIME">      0.40000000</i>
    </separator>
   </separator>
   <separator name="electronic mixer" >
    <i name="AMIX">      0.40000000</i>
    <i name="BMIX">      1.00000000</i>
    <i name="AMIN">      0.10000000</i>
    <i name="AMIX_MAG">      1.60000000</i>
    <i name="BMIX_MAG">      1.00000000</i>
    <separator name="electronic mixer details" >
     <i type="int" name="IMIX">     4</i>
     <i type="logical" name="MIXFIRST"> F  </i>
     <i type="int" name="MAXMIX">   -45</i>
     <i name="WC">    100.00000000</i>
     <i type="int" name="INIMIX">     1</i>
     <i type="int" name="MIXPRE">     1</i>
     <i type="int" name="MREMOVE">     5</i>
    </separator>
   </separator>
   <separator name="electronic dipolcorrection" >
    <i type="logical" name="LDIPOL"> F  </i>
    <i type="logical" name="LMONO"> F  </i>
    <i type="int" name="IDIPOL">     0</i>
    <i name="EPSILON">      1.00000000</i>
    <v name="DIPOL">   -100.00000000   -100.00000000   -100.00000000</v>
    <i name="EFIELD">      0.00000000</i>
    <i type="logical" name="LVACPOTAV"> F  </i>
   </separator>
  </separator>
  <separator name="grids" >
   <i type="int" name="NGX">    60</i>
   <i type="int" name="NGY">    60</i>
   <i type="int" name="NGZ">    96</i>
   <i type="int" name="NGXF">   120</i>
   <i type="int" name="NGYF">   120</i>
   <i type="int" name="NGZF">   192</i>
   <i type="logical" name="ADDGRID"> T  </i>
  </separator>
  <separator name="ionic" >
   <i type="int" name="NSW">   100</i>
   <i type="int" name="IBRION">     2</i>
   <i type="int" name="MDALGO">     0</i>
   <i type="int" name="ISIF">     2</i>
   <i name="PSTRESS">      0.00000000</i>
   <i name="EDIFFG">     -0.00001000</i>
   <i type="int" name="NFREE">     1</i>
   <i name="POTIM">      0.50000000</i>
   <i name="SMASS">     -3.00000000</i>
   <i name="SCALEE">      1.00000000</i>
  </separator>
  <separator name="ionic md" >
   <i name="TEBEG">      0.00010000</i>
   <i name="TEEND">      0.00010000</i>
   <i type="int" name="NBLOCK">     1</i>
   <i type="int" name="KBLOCK">   100</i>
   <i type="int" name="NPACO">   256</i>
   <i name="APACO">     10.00000000</i>
  </separator>
  <separator name="symmetry" >
   <i type="int" name="ISYM">     2</i>
   <i name="SYMPREC">      0.00001000</i>
  </separator>
  <separator name="dos" >
   <i type="int" name="LORBIT">     0</i>
   <v name="RWIGS">     -1.00000000     -1.00000000     -1.00000000     -1.00000000</v>
   <i type="int" name="NEDOS">   301</i>
   <i name="EMIN">     10.00000000</i>
   <i name="EMAX">    -10.00000000</i>
   <i name="EFERMI">      0.00000000</i>
  </separator>
  <separator name="writing" >
   <i type="int" name="NWRITE">     2</i>
   <i type="logical" name="LWAVE"> F  </i>
   <i type="logical" name="LDOWNSAMPLE"> F  </i>
   <i type="logical" name="LCHARG"> F  </i>
   <i type="logical" name="LPARD"> F  </i>
   <i type="logical" name="LVTOT"> F  </i>
   <i type="logical" name="LVHAR"> F  </i>
   <i type="logical" name="LELF"> F  </i>
   <i type="logical" name="LOPTICS"> F  </i>
   <v name="STM">      0.00000000      0.00000000      0.00000000      0.00000000      0.00000000      0.00000000      0.00000000</v>
  </separator>
  <separator name="performance" >
   <i type="int" name="NPAR">     4</i>
   <i type="int" name="NSIM">     4</i>
   <i type="int" name="NBLK">    -1</i>
   <i type="logical" name="LPLANE"> T  </i>
   <i type="logical" name="LSCALAPACK"> T  </i>
   <i type="logical" name="LSCAAWARE"> F  </i>
   <i type="logical" name="LSCALU"> F  </i>
   <i type="logical" name="LASYNC"> F  </i>
   <i type="logical" name="LORBITALREAL"> F  </i>
  </separator>
  <separator name="miscellaneous" >
   <i type="int" name="IDIOT">     3</i>
   <i type="int" name="PHON_NSTRUCT">    -1</i>
   <i type="logical" name="LMUSIC"> F  </i>
   <v name="POMASS">    208.98000000     78.96000000     16.00000000     32.06600000</v>
   <v name="DARWINR">      0.00000000      0.00000000      0.00000000      0.00000000</v>
   <v name="DARWINV">      1.00000000      1.00000000      1.00000000      1.00000000</v>
   <i type="logical" name="LCORR"> T  </i>
  </separator>
  <i type="logical" name="GGA_COMPAT"> T  </i>
  <i type="logical" name="LBERRY"> F  </i>
  <i type="int" name="ICORELEVEL">     0</i>
  <i type="logical" name="LDAU"> F  </i>
  <i type="int" name="I_CONSTRAINED_M">     0</i>
  <separator name="electronic exchange-correlation" >
   <i type="string" name="GGA    ">PE</i>
   <i type="string" name="XC_C">1</i>
   <i type="int" name="VOSKOWN">     0</i>
   <i type="logical" name="LHFCALC"> F  </i>
   <i type="string" name="PRECFOCK"></i>
   <i type="logical" name="LSYMGRAD"> F  </i>
   <i type="logical" name="LHFONE"> F  </i>
   <i type="logical" name="LRHFCALC"> F  </i>
   <i type="logical" name="LTHOMAS"> F  </i>
   <i type="logical" name="LMODELHF"> F  </i>
   <i type="logical" name="LFOCKACE"> F  </i>
   <i name="ENCUT4O">     -1.00000000</i>
   <i type="int" name="EXXOEP">     0</i>
   <i type="int" name="FOURORBIT">     0</i>
   <i name="AEXX">      0.00000000</i>
   <i name="HFALPHA">      0.00000000</i>
   <i name="MCALPHA">      0.00000000</i>
   <i name="ALDAX">      1.00000000</i>
   <i name="AGGAX">      1.00000000</i>
   <i name="AMGGAX">      1.00000000</i>
   <i name="ALDAC">      1.00000000</i>
   <i name="AGGAC">      1.00000000</i>
   <i name="AMGGAC">      1.00000000</i>
   <i type="int" name="NKREDX">     1</i>
   <i type="int" name="NKREDY">     1</i>
   <i type="int" name="NKREDZ">     1</i>
   <i type="logical" name="SHIFTRED"> F  </i>
   <i type="logical" name="ODDONLY"> F  </i>
   <i type="logical" name="EVENONLY"> F  </i>
   <i type="int" name="LMAXFOCK">     0</i>
   <i type="int" name="NMAXFOCKAE">     0</i>
   <i type="logical" name="LFOCKAEDFT"> F  </i>
   <i name="HFSCREEN">      0.00000000</i>
   <i name="HFSCREENC">      0.00000000</i>
   <i type="int" name="NBANDSGWLOW">     0</i>
  </separator>
  <separator name="vdW DFT" >
   <i type="logical" name="LUSE_VDW"> F  </i>
   <i type="int" name="IVDW_NL">    -1</i>
   <i type="logical" name="LSPIN_VDW"> F  </i>
   <i name="ZAB_VDW">     -0.84910000</i>
   <i name="GAMMA_VDW">      1.39626340</i>
   <i name="ALPHA_VDW">      0.00000000</i>
   <i name="PARAM1">      0.12340000</i>
   <i name="PARAM2">      1.00000000</i>
   <i name="BPARAM">      6.30000000</i>
   <i name="CPARAM">      0.00930000</i>
  </separator>
  <separator name="model GW" >
   <i type="int" name="MODEL_GW">     0</i>
   <i name="MODEL_EPS0">     12.10615044</i>
   <i name="MODEL_ALPHA">      1.00000000</i>
  </separator>
  <separator name="linear response parameters" >
   <i type="logical" name="LEPSILON"> F  </i>
   <i type="logical" name="LRPA"> F  </i>
   <i type="logical" name="LNABLA"> F  </i>
   <i type="logical" name="LVEL"> F  </i>
   <i name="CSHIFT">      0.10000000</i>
   <i name="OMEGAMAX">     -1.00000000</i>
   <i name="DEG_THRESHOLD">      0.00200000</i>
   <i name="RTIME">     -0.10000000</i>
   <i name="WPLASMAI">      0.00000000</i>
   <v name="DFIELD">      0.00000000      0.00000000      0.00000000</v>
   <v name="WPLASMA">      0.00000000      0.00000000      0.00000000      0.00000000      0.00000000      0.00000000      0.00000000      0.00000000      0.00000000</v>
  </separator>
  <separator name="orbital magnetization" >
   <i type="logical" name="NUCIND"> F  </i>
   <v name="MAGPOS">      0.00000000      0.00000000      0.00000000</v>
   <i type="logical" name="LNICSALL"> T  </i>
   <i type="logical" name="ORBITALMAG"> F  </i>
   <i type="logical" name="LMAGBLOCH"> F  </i>
   <i type="logical" name="LCHIMAG"> F  </i>
   <i type="logical" name="LGAUGE"> T  </i>
   <i type="int" name="MAGATOM">     0</i>
   <v name="MAGDIPOL">      0.00000000      0.00000000      0.00000000</v>
   <v name="AVECCONST">      0.00000000      0.00000000      0.00000000</v>
  </separator>
  <separator name="response functions" >
   <i type="logical" name="LALL_IN_ONE"> F  </i>
   <i type="int" name="IALL_IN_ONE">    -1</i>
   <i type="int" name="NBANDS_WAVE">    -1</i>
   <i type="logical" name="LFINITE_TEMPERATURE"> F  </i>
   <i type="logical" name="LADDER"> F  </i>
   <i type="logical" name="LRPAFORCE"> F  </i>
   <i type="logical" name="LFXC"> F  </i>
   <i type="logical" name="LHARTREE"> T  </i>
   <i type="int" name="IBSE">     0</i>
   <v type="int" name="KPOINT">    -1     0     0     0</v>
   <i type="logical" name="LTCTC"> F  </i>
   <i type="logical" name="LTCTE"> F  </i>
   <i type="logical" name="LTETE"> F  </i>
   <i type="logical" name="LTRIPLET"> F  </i>
   <i type="logical" name="LFXCEPS"> F  </i>
   <i type="logical" name="LFXHEG"> F  </i>
   <i type="int" name="NATURALO">     2</i>
   <i type="logical" name="LHOLEGF"> F  </i>
   <i type="logical" name="L2ORDER"> F  </i>
   <i type="logical" name="LDMP1"> F  </i>
   <i type="logical" name="LMP2LT"> F  </i>
   <i type="logical" name="LSMP2LT"> F  </i>
   <i type="logical" name="LGWLF"> F  </i>
   <i name="ENCUTGW">     -1.60000002</i>
   <i name="ENCUTGWSOFT">     -1.60000002</i>
   <i name="ENCUTLF">     -1.00000000</i>
   <i type="logical" name="ESF_SPLINES"> F  </i>
   <i name="ESF_CONV">      0.01000000</i>
   <i type="int" name="ESF_NINTER">    15</i>
   <i type="int" name="LMAXMP2">    -1</i>
   <i name="SCISSOR">      0.00000000</i>
   <i type="int" name="NOMEGA">     0</i>
   <i type="int" name="NOMEGAR">     0</i>
   <i type="int" name="NBANDSGW">    -1</i>
   <i type="int" name="NBANDSO">    -1</i>
   <i type="int" name="NBANDSV">    -1</i>
   <i type="int" name="NELMGW">     1</i>
   <i type="int" name="NELMHF">     1</i>
   <i type="int" name="DIM">     3</i>
   <i type="int" name="IESPILON">     4</i>
   <i type="int" name="ANTIRES">     0</i>
   <i name="OMEGAMAX">    -30.00000000</i>
   <i name="OMEGAMIN">    -30.00000000</i>
   <i name="OMEGATL">   -200.00000000</i>
   <i type="int" name="OMEGAGRID">     0</i>
   <i name="CSHIFT">     -0.10000000</i>
   <i type="logical" name="LSELFENERGY"> F  </i>
   <i type="logical" name="LSPECTRAL"> F  </i>
   <i type="logical" name="LSPECTRALGW"> F  </i>
   <i type="logical" name="LSINGLES"> F  </i>
   <i type="logical" name="LFERMIGW"> F  </i>
   <i type="logical" name="ODDONLYGW"> F  </i>
   <i type="logical" name="EVENONLYGW"> F  </i>
   <i type="int" name="NKREDLFX">     1</i>
   <i type="int" name="NKREDLFY">     1</i>
   <i type="int" name="NKREDLFZ">     1</i>
   <i type="int" name="MAXMEM">  2800</i>
   <i type="int" name="TELESCOPE">     0</i>
   <i type="int" name="NTAUPAR">    -1</i>
   <i type="int" name="NOMEGAPAR">    -1</i>
   <i name="DAMP_NEWTON">      0.80000001</i>
   <i name="LAMBDA">      1.00000000</i>
  </separator>
  <separator name="External order field" >
   <i name="OFIELD_KAPPA">      0.00000000</i>
   <v name="OFIELD_K">      0.00000000      0.00000000      0.00000000</v>
   <i name="OFIELD_Q6_NEAR">      0.00000000</i>
   <i name="OFIELD_Q6_FAR">      0.00000000</i>
   <i name="OFIELD_A">      0.00000000</i>
  </separator>
  <separator name="optional k-points parameters" >
   <i type="int" name="KPOINTS_OPT_MODE">     1</i>
   <i type="logical" name="LKPOINTS_OPT"> F  </i>
  </separator>
 </parameters>
 <atominfo>
  <atoms>      40 </atoms>
  <types>       4 </types>
  <array name="atoms" >
   <dimension dim="1">ion</dimension>
   <field type="string">element</field>
   <field type="int">atomtype</field>
   <set>
    <rc><c>Bi</c><c>   1</c></rc>
    <rc><c>Bi</c><c>   1</c></rc>
    <rc><c>Bi</c><c>   1</c></rc>
    <rc><c>Bi</c><c>   1</c></rc>
    <rc><c>Bi</c><c>   1</c></rc>
    <rc><c>Bi</c><c>   1</c></rc>
    <rc><c>Bi</c><c>   1</c></rc>
    <rc><c>Bi</c><c>   1</c></rc>
    <rc><c>Bi</c><c>   1</c></rc>
    <rc><c>Bi</c><c>   1</c></rc>
    <rc><c>Bi</c><c>   1</c></rc>
    <rc><c>Bi</c><c>   1</c></rc>
    <rc><c>Bi</c><c>   1</c></rc>
    <rc><c>Bi</c><c>   1</c></rc>
    <rc><c>Bi</c><c>   1</c></rc>
    <rc><c>Bi</c><c>   1</c></rc>
    <rc><c>Se</c><c>   2</c></rc>
    <rc><c>Se</c><c>   2</c></rc>
    <rc><c>Se</c><c>   2</c></rc>
    <rc><c>Se</c><c>   2</c></rc>
    <rc><c>Se</c><c>   2</c></rc>
    <rc><c>Se</c><c>   2</c></rc>
    <rc><c>Se</c><c>   2</c></rc>
    <rc><c>O </c><c>   3</c></rc>
    <rc><c>O </c><c>   3</c></rc>
    <rc><c>O </c><c>   3</c></rc>
    <rc><c>O </c><c>   3</c></rc>
    <rc><c>O </c><c>   3</c></rc>
    <rc><c>O </c><c>   3</c></rc>
    <rc><c>O </c><c>   3</c></rc>
    <rc><c>O </c><c>   3</c></rc>
    <rc><c>O </c><c>   3</c></rc>
    <rc><c>O </c><c>   3</c></rc>
    <rc><c>O </c><c>   3</c></rc>
    <rc><c>O </c><c>   3</c></rc>
    <rc><c>O </c><c>   3</c></rc>
    <rc><c>O </c><c>   3</c></rc>
    <rc><c>O </c><c>   3</c></rc>
    <rc><c>O </c><c>   3</c></rc>
    <rc><c>S </c><c>   4</c></rc>
   </set>
  </array>
  <array name="atomtypes" >
   <dimension dim="1">type</dimension>
   <field type="int">atomspertype</field>
   <field type="string">element</field>
   <field>mass</field>
   <field>valence</field>
   <field type="string">pseudopotential</field>
   <set>
    <rc><c>  16</c><c>Bi</c><c>    208.98000000</c><c>     15.00000000</c><c>  PAW_PBE Bi_d 06Sep2000                </c></rc>
    <rc><c>   7</c><c>Se</c><c>     78.96000000</c><c>      6.00000000</c><c>  PAW_PBE Se 06Sep2000                  </c></rc>
    <rc><c>  16</c><c>O </c><c>     16.00000000</c><c>      6.00000000</c><c>  PAW_PBE O 08Apr2002                   </c></rc>
    <rc><c>   1</c><c>S </c><c>     32.06600000</c><c>      6.00000000</c><c>  PAW_PBE S 06Sep2000                   </c></rc>
   </set>
  </array>
 </atominfo>
 <structure name="initialpos" >
  <crystal>
   <varray name="basis" >
    <v>       7.99696223       0.00000000       0.00000000 </v>
    <v>       0.00000000       7.99696223       0.00000000 </v>
    <v>       0.00000000       0.00000000      12.62015584 </v>
   </varray>
   <i name="volume">    807.07669622 </i>
   <varray name="rec_basis" >
    <v>       0.12504748       0.00000000       0.00000000 </v>
    <v>       0.00000000       0.12504748       0.00000000 </v>
    <v>       0.00000000       0.00000000       0.07923832 </v>
   </varray>
  </crystal>
  <varray name="positions" >
   <v>       0.24891108       0.24891108       0.85428186 </v>
   <v>       0.75108892       0.24891108       0.85428186 </v>
   <v>       0.24891108       0.75108892       0.85428186 </v>
   <v>       0.75108892       0.75108892       0.85428186 </v>
   <v>       0.00000000       0.00000000       0.64671764 </v>
   <v>       0.50000000       0.00000000       0.64751587 </v>
   <v>       0.00000000       0.50000000       0.64751587 </v>
   <v>       0.50000000       0.50000000       0.64841730 </v>
   <v>       0.00000000       0.00000000       0.35328236 </v>
   <v>       0.50000000       0.00000000       0.35248413 </v>
   <v>       0.00000000       0.50000000       0.35248413 </v>
   <v>       0.50000000       0.50000000       0.35158270 </v>
   <v>       0.24891108       0.24891108       0.14571814 </v>
   <v>       0.75108892       0.24891108       0.14571814 </v>
   <v>       0.24891108       0.75108892       0.14571814 </v>
   <v>       0.75108892       0.75108892       0.14571814 </v>
   <v>       0.50000000       0.00000000       0.00000000 </v>
   <v>       0.00000000       0.50000000       0.00000000 </v>
   <v>       0.50000000       0.50000000       0.00000000 </v>
   <v>       0.25013764       0.25013764       0.50000000 </v>
   <v>       0.74986236       0.25013764       0.50000000 </v>
   <v>       0.25013764       0.74986236       0.50000000 </v>
   <v>       0.74986236       0.74986236       0.50000000 </v>
   <v>       0.00000000       0.24953518       0.75047350 </v>
   <v>       0.50000000       0.24967019       0.75139378 </v>
   <v>       0.00000000       0.75046482       0.75047350 </v>
   <v>       0.50000000       0.75032981       0.75139378 </v>
   <v>       0.24953518       0.00000000       0.75047350 </v>
   <v>       0.75046482       0.00000000       0.75047350 </v>
   <v>       0.24967019       0.50000000       0.75139378 </v>
   <v>       0.75032981       0.50000000       0.75139378 </v>
   <v>       0.24953518       0.00000000       0.24952650 </v>
   <v>       0.75046482       0.00000000       0.24952650 </v>
   <v>       0.24967019       0.50000000       0.24860622 </v>
   <v>       0.75032981       0.50000000       0.24860622 </v>
   <v>       0.00000000       0.24953518       0.24952650 </v>
   <v>       0.50000000       0.24967019       0.24860622 </v>
   <v>       0.00000000       0.75046482       0.24952650 </v>
   <v>       0.50000000       0.75032981       0.24860622 </v>
   <v>       0.00000000       0.00000000       0.00000000 </v>
  </varray>
 </structure>
 <calculation>
  <scstep>
   <time name="dav">   33.86   33.87</time>
   <time name="total">   34.67   34.69</time>
   <energy>
    <i name="alphaZ">   1251.62351563 </i>
    <i name="ewald"> -28865.03217447 </i>
    <i name="hartreedc"> -11678.37960857 </i>
    <i name="XCdc">   1228.41720297 </i>
    <i name="pawpsdc">  34040.00696010 </i>
    <i name="pawaedc"> -33495.80632930 </i>
    <i name="eentropy">     -0.00426080 </i>
    <i name="bandstr">   2642.15368345 </i>
    <i name="atom">  40341.65184589 </i>
    <i name="e_fr_energy">   5464.63083491 </i>
    <i name="e_wo_entrp">   5464.63509570 </i>
    <i name="e_0_energy">   5464.63296531 </i>
   </energy>
  </scstep>
  <scstep>
   <time name="dav">   33.92   33.96</time>
   <time name="total">   33.93   33.96</time>
   <energy>
    <i name="e_fr_energy">    904.89752408 </i>
    <i name="e_wo_entrp">    904.91197474 </i>
    <i name="e_0_energy">    904.90474941 </i>
   </energy>
  </scstep>
  <scstep>
   <time name="dav">   36.76   36.76</time>
   <time name="total">   36.76   36.76</time>
   <energy>
    <i name="e_fr_energy">   -122.02865724 </i>
    <i name="e_wo_entrp">   -122.02865724 </i>
    <i name="e_0_energy">   -122.02865724 </i>
   </energy>
  </scstep>
  <scstep>
   <time name="dav">   38.19   38.19</time>
   <time name="total">   38.19   38.19</time>
   <energy>
    <i name="e_fr_energy">   -238.17701707 </i>
    <i name="e_wo_entrp">   -238.17701707 </i>
    <i name="e_0_energy">   -238.17701707 </i>
   </energy>
  </scstep>
  <scstep>
   <time name="dav">   39.40   39.42</time>
   <time name="total">   40.62   40.64</time>
   <energy>
    <i name="e_fr_energy">   -244.09802876 </i>
    <i name="e_wo_entrp">   -244.09802876 </i>
    <i name="e_0_energy">   -244.09802876 </i>
   </energy>
  </scstep>
  <scstep>
   <time name="dav">   42.40   42.40</time>
   <time name="total">   44.46   44.46</time>
   <energy>
    <i name="e_fr_energy">   -209.16850491 </i>
    <i name="e_wo_entrp">   -209.16850491 </i>
    <i name="e_0_energy">   -209.16850491 </i>
   </energy>
  </scstep>
  <scstep>
   <time name="dav">   36.44   36.46</time>
   <time name="total">   38.50   38.52</time>
   <energy>
    <i name="e_fr_energy">   -207.98399565 </i>
    <i name="e_wo_entrp">   -207.98399524 </i>
    <i name="e_0_energy">   -207.98399544 </i>
   </energy>
  </scstep>
  <scstep>
   <time name="dav">   40.46   40.46</time>
   <time name="total">   42.52   42.52</time>
   <energy>
    <i name="e_fr_energy">   -208.15673432 </i>
    <i name="e_wo_entrp">   -208.15671040 </i>
    <i name="e_0_energy">   -208.15672236 </i>
   </energy>
  </scstep>
  <scstep>
   <time name="dav">   40.46   40.47</time>
   <time name="total">   42.51   42.53</time>
   <energy>
    <i name="e_fr_energy">   -208.09178334 </i>
    <i name="e_wo_entrp">   -208.09178270 </i>
    <i name="e_0_energy">   -208.09178302 </i>
   </energy>
  </scstep>
  <scstep>
   <time name="dav">   40.22   40.23</time>
   <time name="total">   42.27   42.28</time>
   <energy>
    <i name="e_fr_energy">   -208.08272402 </i>
    <i name="e_wo_entrp">   -208.08272048 </i>
    <i name="e_0_energy">   -208.08272225 </i>
   </energy>
  </scstep>
  <scstep>
   <time name="dav">   41.50   41.50</time>
   <time name="total">   43.56   43.56</time>
   <energy>
    <i name="e_fr_energy">   -208.08512185 </i>
    <i name="e_wo_entrp">   -208.08511846 </i>
    <i name="e_0_energy">   -208.08512015 </i>
   </energy>
  </scstep>
  <scstep>
   <time name="dav">   41.85   41.87</time>
   <time name="total">   43.91   43.93</time>
   <energy>
    <i name="e_fr_energy">   -208.08627350 </i>
    <i name="e_wo_entrp">   -208.08627055 </i>
    <i name="e_0_energy">   -208.08627202 </i>
   </energy>
  </scstep>
  <scstep>
   <time name="dav">   37.67   37.68</time>
   <time name="total">   39.72   39.73</time>
   <energy>
    <i name="e_fr_energy">   -208.08630604 </i>
    <i name="e_wo_entrp">   -208.08630317 </i>
    <i name="e_0_energy">   -208.08630461 </i>
   </energy>
  </scstep>
  <scstep>
   <time name="dav">   38.67   38.67</time>
   <time name="total">   40.73   40.73</time>
   <energy>
    <i name="e_fr_energy">   -208.08626871 </i>
    <i name="e_wo_entrp">   -208.08626580 </i>
    <i name="e_0_energy">   -208.08626726 </i>
   </energy>
  </scstep>
  <scstep>
   <time name="dav">   45.52   45.52</time>
   <time name="total">   47.57   47.57</time>
   <energy>
    <i name="e_fr_energy">   -208.08625822 </i>
    <i name="e_wo_entrp">   -208.08625525 </i>
    <i name="e_0_energy">   -208.08625673 </i>
   </energy>
  </scstep>
  <scstep>
   <time name="dav">   38.54   38.56</time>
   <time name="total">   40.59   40.62</time>
   <energy>
    <i name="e_fr_energy">   -208.08625613 </i>
    <i name="e_wo_entrp">   -208.08625315 </i>
    <i name="e_0_energy">   -208.08625464 </i>
   </energy>
  </scstep>
  <scstep>
   <time name="dav">   41.17   41.19</time>
   <time name="total">   43.22   43.25</time>
   <energy>
    <i name="e_fr_energy">   -208.08625501 </i>
    <i name="e_wo_entrp">   -208.08625200 </i>
    <i name="e_0_energy">   -208.08625350 </i>
   </energy>
  </scstep>
  <scstep>
   <time name="dav">   34.49   34.49</time>
   <time name="total">   36.55   36.55</time>
   <energy>
    <i name="e_fr_energy">   -208.08625490 </i>
    <i name="e_wo_entrp">   -208.08625190 </i>
    <i name="e_0_energy">   -208.08625340 </i>
   </energy>
  </scstep>
  <scstep>
   <time name="dav">   35.25   35.25</time>
   <time name="total">   37.31   37.31</time>
   <energy>
    <i name="e_fr_energy">   -208.08625503 </i>
    <i name="e_wo_entrp">   -208.08625203 </i>
    <i name="e_0_energy">   -208.08625353 </i>
   </energy>
  </scstep>
  <scstep>
   <time name="dav">   29.24   29.24</time>
   <time name="total">   31.30   31.30</time>
   <energy>
    <i name="e_fr_energy">   -208.08625502 </i>
    <i name="e_wo_entrp">   -208.08625202 </i>
    <i name="e_0_energy">   -208.08625352 </i>
   </energy>
  </scstep>
  <scstep>
   <time name="dav">   28.78   28.78</time>
   <time name="total">   30.84   30.84</time>
   <energy>
    <i name="e_fr_energy">   -208.08625506 </i>
    <i name="e_wo_entrp">   -208.08625205 </i>
    <i name="e_0_energy">   -208.08625356 </i>
   </energy>
  </scstep>
  <scstep>
   <time name="dav">   24.45   24.46</time>
   <time name="total">   26.51   26.51</time>
   <energy>
    <i name="e_fr_energy">   -208.08625509 </i>
    <i name="e_wo_entrp">   -208.08625209 </i>
    <i name="e_0_energy">   -208.08625359 </i>
   </energy>
  </scstep>
  <scstep>
   <time name="dav">   24.49   24.49</time>
   <time name="total">   25.30   25.31</time>
   <energy>
    <i name="alphaZ">   1251.62351563 </i>
    <i name="ewald"> -28865.03217447 </i>
    <i name="hartreedc"> -11825.81369790 </i>
    <i name="XCdc">   1244.67014729 </i>
    <i name="pawpsdc">  35734.94670419 </i>
    <i name="pawaedc"> -35125.84357664 </i>
    <i name="eentropy">     -0.00000300 </i>
    <i name="bandstr">  -2964.28901608 </i>
    <i name="atom">  40341.65184589 </i>
    <i name="e_fr_energy">   -208.08625509 </i>
    <i name="e_wo_entrp">   -208.08625208 </i>
    <i name="e_0_energy">   -208.08625359 </i>
   </energy>
  </scstep>
  <structure>
   <crystal>
    <varray name="basis" >
     <v>       7.99696223       0.00000000       0.00000000 </v>
     <v>       0.00000000       7.99696223       0.00000000 </v>
     <v>       0.00000000       0.00000000      12.62015584 </v>
    </varray>
    <i name="volume">    807.07669622 </i>
    <varray name="rec_basis" >
     <v>       0.12504748       0.00000000       0.00000000 </v>
     <v>       0.00000000       0.12504748       0.00000000 </v>
     <v>       0.00000000       0.00000000       0.07923832 </v>
    </varray>
   </crystal>
   <varray name="positions" >
    <v>       0.24891108       0.24891108       0.85428186 </v>
    <v>       0.75108892       0.24891108       0.85428186 </v>
    <v>       0.24891108       0.75108892       0.85428186 </v>
    <v>       0.75108892       0.75108892       0.85428186 </v>
    <v>       0.00000000       0.00000000       0.64671764 </v>
    <v>       0.50000000       0.00000000       0.64751587 </v>
    <v>       0.00000000       0.50000000       0.64751587 </v>
    <v>       0.50000000       0.50000000       0.64841730 </v>
    <v>       0.00000000       0.00000000       0.35328236 </v>
    <v>       0.50000000       0.00000000       0.35248413 </v>
    <v>       0.00000000       0.50000000       0.35248413 </v>
    <v>       0.50000000       0.50000000       0.35158270 </v>
    <v>       0.24891108       0.24891108       0.14571814 </v>
    <v>       0.75108892       0.24891108       0.14571814 </v>
    <v>       0.24891108       0.75108892       0.14571814 </v>
    <v>       0.75108892       0.75108892       0.14571814 </v>
    <v>       0.50000000       0.00000000       0.00000000 </v>
    <v>       0.00000000       0.50000000       0.00000000 </v>
    <v>       0.50000000       0.50000000       0.00000000 </v>
    <v>       0.25013764       0.25013764       0.50000000 </v>
    <v>       0.74986236       0.25013764       0.50000000 </v>
    <v>       0.25013764       0.74986236       0.50000000 </v>
    <v>       0.74986236       0.74986236       0.50000000 </v>
    <v>       0.00000000       0.24953518       0.75047350 </v>
    <v>       0.50000000       0.24967019       0.75139378 </v>
    <v>       0.00000000       0.75046482       0.75047350 </v>
    <v>       0.50000000       0.75032981       0.75139378 </v>
    <v>       0.24953518       0.00000000       0.75047350 </v>
    <v>       0.75046482       0.00000000       0.75047350 </v>
    <v>       0.24967019       0.50000000       0.75139378 </v>
    <v>       0.75032981       0.50000000       0.75139378 </v>
    <v>       0.24953518       0.00000000       0.24952650 </v>
    <v>       0.75046482       0.00000000       0.24952650 </v>
    <v>       0.24967019       0.50000000       0.24860622 </v>
    <v>       0.75032981       0.50000000       0.24860622 </v>
    <v>       0.00000000       0.24953518       0.24952650 </v>
    <v>       0.50000000       0.24967019       0.24860622 </v>
    <v>       0.00000000       0.75046482       0.24952650 </v>
    <v>       0.50000000       0.75032981       0.24860622 </v>
    <v>       0.00000000       0.00000000       0.00000000 </v>
   </varray>
  </structure>
  <varray name="forces" >
   <v>       0.00186058       0.00186058      -0.62007193 </v>
   <v>      -0.00186058       0.00186058      -0.62007193 </v>
   <v>       0.00186058      -0.00186058      -0.62007193 </v>
   <v>      -0.00186058      -0.00186058      -0.62007193 </v>
   <v>      -0.00000000       0.00000000       0.61676205 </v>
   <v>       0.00000000       0.00000000       0.61533162 </v>
   <v>       0.00000000       0.00000000       0.61533162 </v>
   <v>       0.00000000       0.00000000       0.61911532 </v>
   <v>       0.00000000       0.00000000      -0.61676205 </v>
   <v>      -0.00000000       0.00000000      -0.61533162 </v>
   <v>      -0.00000000       0.00000000      -0.61533162 </v>
   <v>      -0.00000000       0.00000000      -0.61911532 </v>
   <v>       0.00186058       0.00186058       0.62007193 </v>
   <v>      -0.00186058       0.00186058       0.62007193 </v>
   <v>       0.00186058      -0.00186058       0.62007193 </v>
   <v>      -0.00186058      -0.00186058       0.62007193 </v>
   <v>       0.00000000       0.00000000       0.00000000 </v>
   <v>       0.00000000       0.00000000       0.00000000 </v>
   <v>      -0.00000000       0.00000000       0.00000000 </v>
   <v>      -0.00329757      -0.00329757       0.00000000 </v>
   <v>       0.00329757      -0.00329757       0.00000000 </v>
   <v>      -0.00329757       0.00329757       0.00000000 </v>
   <v>       0.00329757       0.00329757       0.00000000 </v>
   <v>      -0.00000000       0.00086136       0.00590077 </v>
   <v>       0.00000000       0.00077325      -0.00601456 </v>
   <v>       0.00000000      -0.00086136       0.00590077 </v>
   <v>      -0.00000000      -0.00077325      -0.00601456 </v>
   <v>       0.00086136       0.00000000       0.00590077 </v>
   <v>      -0.00086136       0.00000000       0.00590077 </v>
   <v>       0.00077325       0.00000000      -0.00601456 </v>
   <v>      -0.00077325       0.00000000      -0.00601456 </v>
   <v>       0.00086136       0.00000000      -0.00590077 </v>
   <v>      -0.00086136       0.00000000      -0.00590077 </v>
   <v>       0.00077325       0.00000000       0.00601456 </v>
   <v>      -0.00077325       0.00000000       0.00601456 </v>
   <v>      -0.00000000       0.00086136      -0.00590077 </v>
   <v>      -0.00000000       0.00077325       0.00601456 </v>
   <v>       0.00000000      -0.00086136      -0.00590077 </v>
   <v>      -0.00000000      -0.00077325       0.00601456 </v>
   <v>       0.00000000       0.00000000       0.00000000 </v>
  </varray>
  <varray name="stress" >
   <v>     -55.73846087       0.00000000      -0.00000000 </v>
   <v>       0.00000000     -55.73846087       0.00000000 </v>
   <v>       0.00000000       0.00000000     -47.19519701 </v>
  </varray>
  <energy>
   <i name="e_fr_energy">   -208.08625509 </i>
   <i name="e_wo_entrp">   -208.08625208 </i>
   <i name="e_0_energy">   -208.08625359 </i>
  </energy>
  <time name="totalsc">  915.52  915.76</time>
 </calculation>
 <calculation>
  <scstep>
   <time name="dav">   38.58   38.60</time>
   <time name="total">   40.64   40.66</time>
   <energy>
    <i name="alphaZ">   1251.62351563 </i>
    <i name="ewald"> -28647.05480225 </i>
    <i name="hartreedc"> -12034.22437140 </i>
    <i name="XCdc">   1245.31014006 </i>
    <i name="pawpsdc">  35734.94549641 </i>
    <i name="pawaedc"> -35125.84238966 </i>
    <i name="eentropy">     -0.00000189 </i>
    <i name="bandstr">  -2974.37127291 </i>
    <i name="atom">  40341.65184589 </i>
    <i name="e_fr_energy">   -207.96184011 </i>
    <i name="e_wo_entrp">   -207.96183822 </i>
    <i name="e_0_energy">   -207.96183917 </i>
   </energy>
  </scstep>
  <scstep>
   <time name="dav">   43.54   43.57</time>
   <time name="total">   45.59   45.62</time>
   <energy>
    <i name="e_fr_energy">   -208.27325470 </i>
    <i name="e_wo_entrp">   -208.27321519 </i>
    <i name="e_0_energy">   -208.27323494 </i>
   </energy>
  </scstep>
  <scstep>
   <time name="dav">   39.10   39.13</time>
   <time name="total">   41.16   41.19</time>
   <energy>
    <i name="e_fr_energy">   -208.26889703 </i>
    <i name="e_wo_entrp">   -208.26886630 </i>
    <i name="e_0_energy">   -208.26888167 </i>
   </energy>
  </scstep>
  <scstep>
   <time name="dav">   40.82   40.83</time>
   <time name="total">   42.88   42.89</time>
   <energy>
    <i name="e_fr_energy">   -208.26435665 </i>
    <i name="e_wo_entrp">   -208.26432581 </i>
    <i name="e_0_energy">   -208.26434123 </i>
   </energy>
  </scstep>
  <scstep>
   <time name="dav">   44.87   44.91</time>
   <time name="total">   46.93   46.97</time>
   <energy>
    <i name="e_fr_energy">   -208.26407068 </i>
    <i name="e_wo_entrp">   -208.26403275 </i>
    <i name="e_0_energy">   -208.26405172 </i>
   </energy>
  </scstep>
  <scstep>
   <time name="dav">   40.96   40.99</time>
   <time name="total">   43.02   43.06</time>
   <energy>
    <i name="e_fr_energy">   -208.26413236 </i>
    <i name="e_wo_entrp">   -208.26409520 </i>
    <i name="e_0_energy">   -208.26411378 </i>
   </energy>
  </scstep>
  <scstep>
   <time name="dav">   39.33   39.36</time>
   <time name="total">   41.39   41.42</time>
   <energy>
    <i name="e_fr_energy">   -208.26412827 </i>
    <i name="e_wo_entrp">   -208.26408993 </i>
    <i name="e_0_energy">   -208.26410910 </i>
   </energy>
  </scstep>
  <scstep>
   <time name="dav">   39.91   39.91</time>
   <time name="total">   41.96   41.97</time>
   <energy>
    <i name="e_fr_energy">   -208.26412435 </i>
    <i name="e_wo_entrp">   -208.26408586 </i>
    <i name="e_0_energy">   -208.26410510 </i>
   </energy>
  </scstep>
  <scstep>
   <time name="dav">   40.22   40.26</time>
   <time name="total">   42.28   42.32</time>
   <energy>
    <i name="e_fr_energy">   -208.26412586 </i>
    <i name="e_wo_entrp">   -208.26408746 </i>
    <i name="e_0_energy">   -208.26410666 </i>
   </energy>
  </scstep>
  <scstep>
   <time name="dav">   43.87   43.87</time>
   <time name="total">   45.93   45.93</time>
   <energy>
    <i name="e_fr_energy">   -208.26412640 </i>
    <i name="e_wo_entrp">   -208.26408795 </i>
    <i name="e_0_energy">   -208.26410717 </i>
   </energy>
  </scstep>
  <scstep>
   <time name="dav">   37.23   37.26</time>
   <time name="total">   39.28   39.32</time>
   <energy>
    <i name="e_fr_energy">   -208.26412671 </i>
    <i name="e_wo_entrp">   -208.26408828 </i>
    <i name="e_0_energy">   -208.26410750 </i>
   </energy>
  </scstep>
  <scstep>
   <time name="dav">   30.56   30.59</time>
   <time name="total">   32.62   32.64</time>
   <energy>
    <i name="e_fr_energy">   -208.26412675 </i>
    <i name="e_wo_entrp">   -208.26408831 </i>
    <i name="e_0_energy">   -208.26410753 </i>
   </energy>
  </scstep>
  <scstep>
   <time name="dav">   24.33   24.33</time>
   <time name="total">   26.39   26.39</time>
   <energy>
    <i name="e_fr_energy">   -208.26412676 </i>
    <i name="e_wo_entrp">   -208.26408833 </i>
    <i name="e_0_energy">   -208.26410755 </i>
   </energy>
  </scstep>
  <scstep>
   <time name="dav">   24.10   24.12</time>
   <time name="total">   26.16   26.18</time>
   <energy>
    <i name="e_fr_energy">   -208.26412678 </i>
    <i name="e_wo_entrp">   -208.26408835 </i>
    <i name="e_0_energy">   -208.26410756 </i>
   </energy>
  </scstep>
  <scstep>
   <time name="dav">   23.85   23.86</time>
   <time name="total">   25.90   25.92</time>
   <energy>
    <i name="e_fr_energy">   -208.26412679 </i>
    <i name="e_wo_entrp">   -208.26408836 </i>
    <i name="e_0_energy">   -208.26410757 </i>
   </energy>
  </scstep>
  <scstep>
   <time name="dav">   23.90   23.90</time>
   <time name="total">   24.72   24.72</time>
   <energy>
    <i name="alphaZ">   1251.62351563 </i>
    <i name="ewald"> -28647.05480225 </i>
    <i name="hartreedc"> -12033.95432873 </i>
    <i name="XCdc">   1245.73523405 </i>
    <i name="pawpsdc">  35810.31142592 </i>
    <i name="pawaedc"> -35201.90979019 </i>
    <i name="eentropy">     -0.00003843 </i>
    <i name="bandstr">  -2974.66718870 </i>
    <i name="atom">  40341.65184589 </i>
    <i name="e_fr_energy">   -208.26412680 </i>
    <i name="e_wo_entrp">   -208.26408837 </i>
    <i name="e_0_energy">   -208.26410758 </i>
   </energy>
  </scstep>
  <structure>
   <crystal>
    <varray name="basis" >
     <v>       7.99696223       0.00000000       0.00000000 </v>
     <v>       0.00000000       7.99696223       0.00000000 </v>
     <v>       0.00000000       0.00000000      12.62015584 </v>
    </varray>
    <i name="volume">    807.07669622 </i>
    <varray name="rec_basis" >
     <v>       0.12504748       0.00000000       0.00000000 </v>
     <v>       0.00000000       0.12504748       0.00000000 </v>
     <v>       0.00000000       0.00000000       0.07923832 </v>
    </varray>
   </crystal>
   <varray name="positions" >
    <v>       0.24892230       0.24892230       0.85191153 </v>
    <v>       0.75107770       0.24892230       0.85191153 </v>
    <v>       0.24892230       0.75107770       0.85191153 </v>
    <v>       0.75107770       0.75107770       0.85191153 </v>
    <v>       1.00000000       0.00000000       0.64907531 </v>
    <v>       0.50000000       0.00000000       0.64986808 </v>
    <v>       0.00000000       0.50000000       0.64986808 </v>
    <v>       0.50000000       0.50000000       0.65078397 </v>
    <v>       0.00000000       0.00000000       0.35092469 </v>
    <v>       0.50000000       0.00000000       0.35013192 </v>
    <v>       1.00000000       0.50000000       0.35013192 </v>
    <v>       0.50000000       0.50000000       0.34921603 </v>
    <v>       0.24892230       0.24892230       0.14808847 </v>
    <v>       0.75107770       0.24892230       0.14808847 </v>
    <v>       0.24892230       0.75107770       0.14808847 </v>
    <v>       0.75107770       0.75107770       0.14808847 </v>
    <v>       0.50000000       0.00000000       0.00000000 </v>
    <v>       0.00000000       0.50000000       0.00000000 </v>
    <v>       0.50000000       0.50000000       0.00000000 </v>
    <v>       0.25011775       0.25011775       0.50000000 </v>
    <v>       0.74988225       0.25011775       0.50000000 </v>
    <v>       0.25011775       0.74988225       0.50000000 </v>
    <v>       0.74988225       0.74988225       0.50000000 </v>
    <v>       1.00000000       0.24954037       0.75049606 </v>
    <v>       0.50000000       0.24967485       0.75137079 </v>
    <v>       0.00000000       0.75045963       0.75049606 </v>
    <v>       0.50000000       0.75032515       0.75137079 </v>
    <v>       0.24954037       0.00000000       0.75049606 </v>
    <v>       0.75045963       0.00000000       0.75049606 </v>
    <v>       0.24967485       0.50000000       0.75137079 </v>
    <v>       0.75032515       0.50000000       0.75137079 </v>
    <v>       0.24954037       0.00000000       0.24950394 </v>
    <v>       0.75045963       0.00000000       0.24950394 </v>
    <v>       0.24967485       0.50000000       0.24862921 </v>
    <v>       0.75032515       0.50000000       0.24862921 </v>
    <v>       1.00000000       0.24954037       0.24950394 </v>
    <v>       0.50000000       0.24967485       0.24862921 </v>
    <v>       0.00000000       0.75045963       0.24950394 </v>
    <v>       0.50000000       0.75032515       0.24862921 </v>
    <v>       0.00000000       0.00000000       0.00000000 </v>
   </varray>
  </structure>
  <varray name="forces" >
   <v>       0.00703010       0.00703010      -0.12427920 </v>
   <v>      -0.00703010       0.00703010      -0.12427920 </v>
   <v>       0.00703010      -0.00703010      -0.12427920 </v>
   <v>      -0.00703010      -0.00703010      -0.12427920 </v>
   <v>       0.00000000      -0.00000000       0.12100734 </v>
   <v>       0.00000000      -0.00000000       0.12600195 </v>
   <v>      -0.00000000       0.00000000       0.12600195 </v>
   <v>      -0.00000000      -0.00000000       0.13148139 </v>
   <v>      -0.00000000       0.00000000      -0.12100734 </v>
   <v>      -0.00000000       0.00000000      -0.12600195 </v>
   <v>       0.00000000       0.00000000      -0.12600195 </v>
   <v>      -0.00000000       0.00000000      -0.13148139 </v>
   <v>       0.00703010       0.00703010       0.12427920 </v>
   <v>      -0.00703010       0.00703010       0.12427920 </v>
   <v>       0.00703010      -0.00703010       0.12427920 </v>
   <v>      -0.00703010      -0.00703010       0.12427920 </v>
   <v>       0.00000000       0.00000000       0.00000000 </v>
   <v>      -0.00000000       0.00000000       0.00000000 </v>
   <v>      -0.00000000      -0.00000000       0.00000000 </v>
   <v>      -0.00419942      -0.00419942       0.00000000 </v>
   <v>       0.00419942      -0.00419942       0.00000000 </v>
   <v>      -0.00419942       0.00419942       0.00000000 </v>
   <v>       0.00419942       0.00419942       0.00000000 </v>
   <v>       0.00000000       0.00027778       0.00258787 </v>
   <v>       0.00000000       0.00043204      -0.00446822 </v>
   <v>       0.00000000      -0.00027778       0.00258787 </v>
   <v>       0.00000000      -0.00043204      -0.00446822 </v>
   <v>       0.00027778       0.00000000       0.00258787 </v>
   <v>      -0.00027778       0.00000000       0.00258787 </v>
   <v>       0.00043204       0.00000000      -0.00446822 </v>
   <v>      -0.00043204      -0.00000000      -0.00446822 </v>
   <v>       0.00027778      -0.00000000      -0.00258787 </v>
   <v>      -0.00027778      -0.00000000      -0.00258787 </v>
   <v>       0.00043204      -0.00000000       0.00446822 </v>
   <v>      -0.00043204       0.00000000       0.00446822 </v>
   <v>      -0.00000000       0.00027778      -0.00258787 </v>
   <v>       0.00000000       0.00043204       0.00446822 </v>
   <v>      -0.00000000      -0.00027778      -0.00258787 </v>
   <v>      -0.00000000      -0.00043204       0.00446822 </v>
   <v>       0.00000000      -0.00000000       0.00000000 </v>
  </varray>
  <varray name="stress" >
   <v>     -46.93744303       0.00000000       0.00000000 </v>
   <v>       0.00000000     -46.93744303       0.00000000 </v>
   <v>       0.00000000       0.00000000     -35.98081767 </v>
  </varray>
  <energy>
   <i name="e_fr_energy">   -208.26412680 </i>
   <i name="e_wo_entrp">   -208.26408837 </i>
   <i name="e_0_energy">   -208.26410758 </i>
  </energy>
  <time name="totalsc">  640.95  641.30</time>
 </calculation>
 <calculation>
  <scstep>
   <time name="dav">   38.65   38.69</time>
   <time name="total">   40.71   40.75</time>
   <energy>
    <i name="alphaZ">   1251.62351563 </i>
    <i name="ewald"> -28590.00260509 </i>
    <i name="hartreedc"> -12088.42192958 </i>
    <i name="XCdc">   1245.90649088 </i>
    <i name="pawpsdc">  35810.31054056 </i>
    <i name="pawaedc"> -35201.90891176 </i>
    <i name="eentropy">     -0.00003657 </i>
    <i name="bandstr">  -2977.41551964 </i>
    <i name="atom">  40341.65184589 </i>
    <i name="e_fr_energy">   -208.25660967 </i>
    <i name="e_wo_entrp">   -208.25657310 </i>
    <i name="e_0_energy">   -208.25659139 </i>
   </energy>
  </scstep>
  <scstep>
   <time name="dav">   43.43   43.48</time>
   <time name="total">   45.49   45.54</time>
   <energy>
    <i name="e_fr_energy">   -208.27199616 </i>
    <i name="e_wo_entrp">   -208.27192814 </i>
    <i name="e_0_energy">   -208.27196215 </i>
   </energy>
  </scstep>
  <scstep>
   <time name="dav">   38.84   38.84</time>
   <time name="total">   40.90   40.90</time>
   <energy>
    <i name="e_fr_energy">   -208.27187827 </i>
    <i name="e_wo_entrp">   -208.27181421 </i>
    <i name="e_0_energy">   -208.27184624 </i>
   </energy>
  </scstep>
  <scstep>
   <time name="dav">   42.42   42.48</time>
   <time name="total">   44.48   44.54</time>
   <energy>
    <i name="e_fr_energy">   -208.27170271 </i>
    <i name="e_wo_entrp">   -208.27163780 </i>
    <i name="e_0_energy">   -208.27167025 </i>
   </energy>
  </scstep>
  <scstep>
   <time name="dav">   43.24   43.24</time>
   <time name="total">   45.29   45.30</time>
   <energy>
    <i name="e_fr_energy">   -208.27168910 </i>
    <i name="e_wo_entrp">   -208.27162120 </i>
    <i name="e_0_energy">   -208.27165515 </i>
   </energy>
  </scstep>
  <scstep>
   <time name="dav">   40.82   40.82</time>
   <time name="total">   42.88   42.88</time>
   <energy>
    <i name="e_fr_energy">   -208.27168977 </i>
    <i name="e_wo_entrp">   -208.27162218 </i>
    <i name="e_0_energy">   -208.27165598 </i>
   </energy>
  </scstep>
  <scstep>
   <time name="dav">   37.79   37.81</time>
   <time name="total">   39.85   39.87</time>
   <energy>
    <i name="e_fr_energy">   -208.27168839 </i>
    <i name="e_wo_entrp">   -208.27162056 </i>
    <i name="e_0_energy">   -208.27165448 </i>
   </energy>
  </scstep>
  <scstep>
   <time name="dav">   40.18   40.20</time>
   <time name="total">   42.24   42.26</time>
   <energy>
    <i name="e_fr_energy">   -208.27168797 </i>
    <i name="e_wo_entrp">   -208.27162008 </i>
    <i name="e_0_energy">   -208.27165403 </i>
   </energy>
  </scstep>
  <scstep>
   <time name="dav">   33.89   33.93</time>
   <time name="total">   35.95   36.00</time>
   <energy>
    <i name="e_fr_energy">   -208.27168819 </i>
    <i name="e_wo_entrp">   -208.27162033 </i>
    <i name="e_0_energy">   -208.27165426 </i>
   </energy>
  </scstep>
  <scstep>
   <time name="dav">   26.90   26.90</time>
   <time name="total">   28.96   28.97</time>
   <energy>
    <i name="e_fr_energy">   -208.27168832 </i>
    <i name="e_wo_entrp">   -208.27162044 </i>
    <i name="e_0_energy">   -208.27165438 </i>
   </energy>
  </scstep>
  <scstep>
   <time name="dav">   24.25   24.27</time>
   <time name="total">   26.30   26.32</time>
   <energy>
    <i name="e_fr_energy">   -208.27168840 </i>
    <i name="e_wo_entrp">   -208.27162052 </i>
    <i name="e_0_energy">   -208.27165446 </i>
   </energy>
  </scstep>
  <scstep>
   <time name="dav">   23.89   23.90</time>
   <time name="total">   25.95   25.96</time>
   <energy>
    <i name="e_fr_energy">   -208.27168843 </i>
    <i name="e_wo_entrp">   -208.27162054 </i>
    <i name="e_0_energy">   -208.27165448 </i>
   </energy>
  </scstep>
  <scstep>
   <time name="dav">   23.77   23.79</time>
   <time name="total">   24.59   24.61</time>
   <energy>
    <i name="alphaZ">   1251.62351563 </i>
    <i name="ewald"> -28590.00260509 </i>
    <i name="hartreedc"> -12088.26233556 </i>
    <i name="XCdc">   1246.00996359 </i>
    <i name="pawpsdc">  35830.40433493 </i>
    <i name="pawaedc"> -35222.20388426 </i>
    <i name="eentropy">     -0.00006788 </i>
    <i name="bandstr">  -2977.49245569 </i>
    <i name="atom">  40341.65184589 </i>
    <i name="e_fr_energy">   -208.27168843 </i>
    <i name="e_wo_entrp">   -208.27162055 </i>
    <i name="e_0_energy">   -208.27165449 </i>
   </energy>
  </scstep>
  <structure>
   <crystal>
    <varray name="basis" >
     <v>       7.99696223       0.00000000       0.00000000 </v>
     <v>       0.00000000       7.99696223       0.00000000 </v>
     <v>       0.00000000       0.00000000      12.62015584 </v>
    </varray>
    <i name="volume">    807.07669622 </i>
    <varray name="rec_basis" >
     <v>       0.12504748       0.00000000       0.00000000 </v>
     <v>       0.00000000       0.12504748       0.00000000 </v>
     <v>       0.00000000       0.00000000       0.07923832 </v>
    </varray>
   </crystal>
   <varray name="positions" >
    <v>       0.24892516       0.24892516       0.85130945 </v>
    <v>       0.75107484       0.24892516       0.85130945 </v>
    <v>       0.24892516       0.75107484       0.85130945 </v>
    <v>       0.75107484       0.75107484       0.85130945 </v>
    <v>       0.00000000       0.00000000       0.64967418 </v>
    <v>       0.50000000       0.00000000       0.65046556 </v>
    <v>       0.00000000       0.50000000       0.65046556 </v>
    <v>       0.50000000       0.50000000       0.65138513 </v>
    <v>       0.00000000       0.00000000       0.35032582 </v>
    <v>       0.50000000       0.00000000       0.34953444 </v>
    <v>       0.00000000       0.50000000       0.34953444 </v>
    <v>       0.50000000       0.50000000       0.34861487 </v>
    <v>       0.24892516       0.24892516       0.14869055 </v>
    <v>       0.75107484       0.24892516       0.14869055 </v>
    <v>       0.24892516       0.75107484       0.14869055 </v>
    <v>       0.75107484       0.75107484       0.14869055 </v>
    <v>       0.50000000       0.00000000       0.00000000 </v>
    <v>       0.00000000       0.50000000       0.00000000 </v>
    <v>       0.50000000       0.50000000       0.00000000 </v>
    <v>       0.25011269       0.25011269       0.50000000 </v>
    <v>       0.74988731       0.25011269       0.50000000 </v>
    <v>       0.25011269       0.74988731       0.50000000 </v>
    <v>       0.74988731       0.74988731       0.50000000 </v>
    <v>       0.00000000       0.24954169       0.75050179 </v>
    <v>       0.50000000       0.24967603       0.75136495 </v>
    <v>       0.00000000       0.75045831       0.75050179 </v>
    <v>       0.50000000       0.75032397       0.75136495 </v>
    <v>       0.24954169       0.00000000       0.75050179 </v>
    <v>       0.75045831       0.00000000       0.75050179 </v>
    <v>       0.24967603       0.50000000       0.75136495 </v>
    <v>       0.75032397       0.50000000       0.75136495 </v>
    <v>       0.24954169       0.00000000       0.24949821 </v>
    <v>       0.75045831       0.00000000       0.24949821 </v>
    <v>       0.24967603       0.50000000       0.24863505 </v>
    <v>       0.75032397       0.50000000       0.24863505 </v>
    <v>       0.00000000       0.24954169       0.24949821 </v>
    <v>       0.50000000       0.24967603       0.24863505 </v>
    <v>       0.00000000       0.75045831       0.24949821 </v>
    <v>       0.50000000       0.75032397       0.24863505 </v>
    <v>       0.00000000       0.00000000       0.00000000 </v>
   </varray>
  </structure>
  <varray name="forces" >
   <v>       0.00838701       0.00838701       0.00275013 </v>
   <v>      -0.00838701       0.00838701       0.00275013 </v>
   <v>       0.00838701      -0.00838701       0.00275013 </v>
   <v>      -0.00838701      -0.00838701       0.00275013 </v>
   <v>       0.00000000      -0.00000000      -0.00598399 </v>
   <v>       0.00000000      -0.00000000       0.00064444 </v>
   <v>      -0.00000000      -0.00000000       0.00064444 </v>
   <v>      -0.00000000      -0.00000000       0.00647562 </v>
   <v>      -0.00000000      -0.00000000       0.00598399 </v>
   <v>      -0.00000000      -0.00000000      -0.00064444 </v>
   <v>       0.00000000      -0.00000000      -0.00064444 </v>
   <v>      -0.00000000      -0.00000000      -0.00647562 </v>
   <v>       0.00838701       0.00838701      -0.00275013 </v>
   <v>      -0.00838701       0.00838701      -0.00275013 </v>
   <v>       0.00838701      -0.00838701      -0.00275013 </v>
   <v>      -0.00838701      -0.00838701      -0.00275013 </v>
   <v>      -0.00000000      -0.00000000       0.00000000 </v>
   <v>      -0.00000000      -0.00000000       0.00000000 </v>
   <v>      -0.00000000      -0.00000000       0.00000000 </v>
   <v>      -0.00442712      -0.00442712       0.00000000 </v>
   <v>       0.00442712      -0.00442712       0.00000000 </v>
   <v>      -0.00442712       0.00442712       0.00000000 </v>
   <v>       0.00442712       0.00442712       0.00000000 </v>
   <v>      -0.00000000       0.00012653       0.00166288 </v>
   <v>      -0.00000000       0.00032930      -0.00406485 </v>
   <v>      -0.00000000      -0.00012653       0.00166288 </v>
   <v>       0.00000000      -0.00032930      -0.00406485 </v>
   <v>       0.00012653      -0.00000000       0.00166288 </v>
   <v>      -0.00012653      -0.00000000       0.00166288 </v>
   <v>       0.00032930      -0.00000000      -0.00406485 </v>
   <v>      -0.00032930      -0.00000000      -0.00406485 </v>
   <v>       0.00012653      -0.00000000      -0.00166288 </v>
   <v>      -0.00012653      -0.00000000      -0.00166288 </v>
   <v>       0.00032930      -0.00000000       0.00406485 </v>
   <v>      -0.00032930      -0.00000000       0.00406485 </v>
   <v>       0.00000000       0.00012653      -0.00166288 </v>
   <v>      -0.00000000       0.00032930       0.00406485 </v>
   <v>       0.00000000      -0.00012653      -0.00166288 </v>
   <v>       0.00000000      -0.00032930       0.00406485 </v>
   <v>      -0.00000000      -0.00000000       0.00000000 </v>
  </varray>
  <varray name="stress" >
   <v>     -44.47324398       0.00000000      -0.00000000 </v>
   <v>       0.00000000     -44.47324398       0.00000000 </v>
   <v>       0.00000000       0.00000000     -33.16994837 </v>
  </varray>
  <energy>
   <i name="e_fr_energy">   -208.27168843 </i>
   <i name="e_wo_entrp">   -208.27162055 </i>
   <i name="e_0_energy">   -208.27165449 </i>
  </energy>
  <time name="totalsc">  517.61  517.94</time>
 </calculation>
 <calculation>
  <scstep>
   <time name="dav">   38.95   39.00</time>
   <time name="total">   41.02   41.06</time>
   <energy>
    <i name="alphaZ">   1251.62351563 </i>
    <i name="ewald"> -28590.49723446 </i>
    <i name="hartreedc"> -12087.78996119 </i>
    <i name="XCdc">   1246.00845763 </i>
    <i name="pawpsdc">  35830.41262517 </i>
    <i name="pawaedc"> -35222.21213663 </i>
    <i name="eentropy">     -0.00006790 </i>
    <i name="bandstr">  -2977.46873201 </i>
    <i name="atom">  40341.65184589 </i>
    <i name="e_fr_energy">   -208.27168788 </i>
    <i name="e_wo_entrp">   -208.27161999 </i>
    <i name="e_0_energy">   -208.27165394 </i>
   </energy>
  </scstep>
  <scstep>
   <time name="dav">   43.40   43.43</time>
   <time name="total">   45.46   45.48</time>
   <energy>
    <i name="e_fr_energy">   -208.27168895 </i>
    <i name="e_wo_entrp">   -208.27162138 </i>
    <i name="e_0_energy">   -208.27165517 </i>
   </energy>
  </scstep>
  <scstep>
   <time name="dav">   38.95   38.96</time>
   <time name="total">   41.01   41.02</time>
   <energy>
    <i name="e_fr_energy">   -208.27168890 </i>
    <i name="e_wo_entrp">   -208.27162130 </i>
    <i name="e_0_energy">   -208.27165510 </i>
   </energy>
  </scstep>
  <scstep>
   <time name="dav">   28.37   28.39</time>
   <time name="total">   30.43   30.45</time>
   <energy>
    <i name="e_fr_energy">   -208.27168883 </i>
    <i name="e_wo_entrp">   -208.27162125 </i>
    <i name="e_0_energy">   -208.27165504 </i>
   </energy>
  </scstep>
  <scstep>
   <time name="dav">   23.47   23.48</time>
   <time name="total">   24.29   24.30</time>
   <energy>
    <i name="alphaZ">   1251.62351563 </i>
    <i name="ewald"> -28590.49723446 </i>
    <i name="hartreedc"> -12087.79137788 </i>
    <i name="XCdc">   1246.00757872 </i>
    <i name="pawpsdc">  35830.23634780 </i>
    <i name="pawaedc"> -35222.03408525 </i>
    <i name="eentropy">     -0.00006756 </i>
    <i name="bandstr">  -2977.46821174 </i>
    <i name="atom">  40341.65184589 </i>
    <i name="e_fr_energy">   -208.27168884 </i>
    <i name="e_wo_entrp">   -208.27162128 </i>
    <i name="e_0_energy">   -208.27165506 </i>
   </energy>
  </scstep>
  <structure>
   <crystal>
    <varray name="basis" >
     <v>       7.99696223       0.00000000       0.00000000 </v>
     <v>       0.00000000       7.99696223       0.00000000 </v>
     <v>       0.00000000       0.00000000      12.62015584 </v>
    </varray>
    <i name="volume">    807.07669622 </i>
    <varray name="rec_basis" >
     <v>       0.12504748       0.00000000       0.00000000 </v>
     <v>       0.00000000       0.12504748       0.00000000 </v>
     <v>       0.00000000       0.00000000       0.07923832 </v>
    </varray>
   </crystal>
   <varray name="positions" >
    <v>       0.24892513       0.24892513       0.85131464 </v>
    <v>       0.75107487       0.24892513       0.85131464 </v>
    <v>       0.24892513       0.75107487       0.85131464 </v>
    <v>       0.75107487       0.75107487       0.85131464 </v>
    <v>       0.00000000       0.00000000       0.64966902 </v>
    <v>       0.50000000       0.00000000       0.65046041 </v>
    <v>       0.00000000       0.50000000       0.65046041 </v>
    <v>       0.50000000       0.50000000       0.65137994 </v>
    <v>       0.00000000       0.00000000       0.35033098 </v>
    <v>       0.50000000       0.00000000       0.34953959 </v>
    <v>       0.00000000       0.50000000       0.34953959 </v>
    <v>       0.50000000       0.50000000       0.34862006 </v>
    <v>       0.24892513       0.24892513       0.14868536 </v>
    <v>       0.75107487       0.24892513       0.14868536 </v>
    <v>       0.24892513       0.75107487       0.14868536 </v>
    <v>       0.75107487       0.75107487       0.14868536 </v>
    <v>       0.50000000       0.00000000       0.00000000 </v>
    <v>       0.00000000       0.50000000       0.00000000 </v>
    <v>       0.50000000       0.50000000       0.00000000 </v>
    <v>       0.25011274       0.25011274       0.50000000 </v>
    <v>       0.74988726       0.25011274       0.50000000 </v>
    <v>       0.25011274       0.74988726       0.50000000 </v>
    <v>       0.74988726       0.74988726       0.50000000 </v>
    <v>       0.00000000       0.24954168       0.75050174 </v>
    <v>       0.50000000       0.24967602       0.75136500 </v>
    <v>       0.00000000       0.75045832       0.75050174 </v>
    <v>       0.50000000       0.75032398       0.75136500 </v>
    <v>       0.24954168       0.00000000       0.75050174 </v>
    <v>       0.75045832       0.00000000       0.75050174 </v>
    <v>       0.24967602       0.50000000       0.75136500 </v>
    <v>       0.75032398       0.50000000       0.75136500 </v>
    <v>       0.24954168       0.00000000       0.24949826 </v>
    <v>       0.75045832       0.00000000       0.24949826 </v>
    <v>       0.24967602       0.50000000       0.24863500 </v>
    <v>       0.75032398       0.50000000       0.24863500 </v>
    <v>       0.00000000       0.24954168       0.24949826 </v>
    <v>       0.50000000       0.24967602       0.24863500 </v>
    <v>       0.00000000       0.75045832       0.24949826 </v>
    <v>       0.50000000       0.75032398       0.24863500 </v>
    <v>       0.00000000       0.00000000       0.00000000 </v>
   </varray>
  </structure>
  <varray name="forces" >
   <v>       0.00837657       0.00837657       0.00160271 </v>
   <v>      -0.00837657       0.00837657       0.00160271 </v>
   <v>       0.00837657      -0.00837657       0.00160271 </v>
   <v>      -0.00837657      -0.00837657       0.00160271 </v>
   <v>       0.00000000       0.00000000      -0.00483951 </v>
   <v>      -0.00000000       0.00000000       0.00177792 </v>
   <v>       0.00000000       0.00000000       0.00177792 </v>
   <v>      -0.00000000       0.00000000       0.00761066 </v>
   <v>       0.00000000       0.00000000       0.00483951 </v>
   <v>       0.00000000       0.00000000      -0.00177792 </v>
   <v>      -0.00000000       0.00000000      -0.00177792 </v>
   <v>       0.00000000       0.00000000      -0.00761066 </v>
   <v>       0.00837657       0.00837657      -0.00160271 </v>
   <v>      -0.00837657       0.00837657      -0.00160271 </v>
   <v>       0.00837657      -0.00837657      -0.00160271 </v>
   <v>      -0.00837657      -0.00837657      -0.00160271 </v>
   <v>       0.00000000       0.00000000       0.00000000 </v>
   <v>       0.00000000       0.00000000       0.00000000 </v>
   <v>       0.00000000       0.00000000       0.00000000 </v>
   <v>      -0.00442481      -0.00442481       0.00000000 </v>
   <v>       0.00442481      -0.00442481       0.00000000 </v>
   <v>      -0.00442481       0.00442481       0.00000000 </v>
   <v>       0.00442481       0.00442481       0.00000000 </v>
   <v>      -0.00000000       0.00012737       0.00167100 </v>
   <v>       0.00000000       0.00032988      -0.00406839 </v>
   <v>       0.00000000      -0.00012737       0.00167100 </v>
   <v>      -0.00000000      -0.00032988      -0.00406839 </v>
   <v>       0.00012737       0.00000000       0.00167100 </v>
   <v>      -0.00012737       0.00000000       0.00167100 </v>
   <v>       0.00032988       0.00000000      -0.00406839 </v>
   <v>      -0.00032988       0.00000000      -0.00406839 </v>
   <v>       0.00012737       0.00000000      -0.00167100 </v>
   <v>      -0.00012737       0.00000000      -0.00167100 </v>
   <v>       0.00032988       0.00000000       0.00406839 </v>
   <v>      -0.00032988       0.00000000       0.00406839 </v>
   <v>      -0.00000000       0.00012737      -0.00167100 </v>
   <v>       0.00000000       0.00032988       0.00406839 </v>
   <v>      -0.00000000      -0.00012737      -0.00167100 </v>
   <v>       0.00000000      -0.00032988       0.00406839 </v>
   <v>       0.00000000       0.00000000       0.00000000 </v>
  </varray>
  <varray name="stress" >
   <v>     -44.49431315       0.00000000       0.00000000 </v>
   <v>       0.00000000     -44.49431315       0.00000000 </v>
   <v>      -0.00000000       0.00000000     -33.19427521 </v>
  </varray>
  <energy>
   <i name="e_fr_energy">   -208.27168884 </i>
   <i name="e_wo_entrp">   -208.27162128 </i>
   <i name="e_0_energy">   -208.27165506 </i>
  </energy>
  <time name="totalsc">  216.23  216.36</time>
 </calculation>
 <calculation>
  <scstep>
   <time name="dav">   32.49   32.49</time>
   <time name="total">   34.55   34.55</time>
   <energy>
    <i name="alphaZ">   1251.62351563 </i>
    <i name="ewald"> -28590.47432318 </i>
    <i name="hartreedc"> -12087.81316567 </i>
    <i name="XCdc">   1246.00763156 </i>
    <i name="pawpsdc">  35830.23605813 </i>
    <i name="pawaedc"> -35222.03379179 </i>
    <i name="eentropy">     -0.00006756 </i>
    <i name="bandstr">  -2977.46939187 </i>
    <i name="atom">  40341.65184589 </i>
    <i name="e_fr_energy">   -208.27168886 </i>
    <i name="e_wo_entrp">   -208.27162130 </i>
    <i name="e_0_energy">   -208.27165508 </i>
   </energy>
  </scstep>
  <scstep>
   <time name="dav">   26.20   26.22</time>
   <time name="total">   28.25   28.28</time>
   <energy>
    <i name="e_fr_energy">   -208.27168887 </i>
    <i name="e_wo_entrp">   -208.27162130 </i>
    <i name="e_0_energy">   -208.27165508 </i>
   </energy>
  </scstep>
  <scstep>
   <time name="dav">   23.20   23.21</time>
   <time name="total">   25.26   25.26</time>
   <energy>
    <i name="e_fr_energy">   -208.27168887 </i>
    <i name="e_wo_entrp">   -208.27162130 </i>
    <i name="e_0_energy">   -208.27165509 </i>
   </energy>
  </scstep>
  <scstep>
   <time name="dav">   23.19   23.19</time>
   <time name="total">   25.24   25.24</time>
   <energy>
    <i name="e_fr_energy">   -208.27168888 </i>
    <i name="e_wo_entrp">   -208.27162131 </i>
    <i name="e_0_energy">   -208.27165509 </i>
   </energy>
  </scstep>
  <scstep>
   <time name="dav">   23.08   23.12</time>
   <time name="total">   23.90   23.94</time>
   <energy>
    <i name="alphaZ">   1251.62351563 </i>
    <i name="ewald"> -28590.47432318 </i>
    <i name="hartreedc"> -12087.81329718 </i>
    <i name="XCdc">   1246.00768586 </i>
    <i name="pawpsdc">  35830.24920409 </i>
    <i name="pawaedc"> -35222.04702916 </i>
    <i name="eentropy">     -0.00006757 </i>
    <i name="bandstr">  -2977.46922326 </i>
    <i name="atom">  40341.65184589 </i>
    <i name="e_fr_energy">   -208.27168888 </i>
    <i name="e_wo_entrp">   -208.27162131 </i>
    <i name="e_0_energy">   -208.27165509 </i>
   </energy>
  </scstep>
  <structure>
   <crystal>
    <varray name="basis" >
     <v>       7.99696223       0.00000000       0.00000000 </v>
     <v>       0.00000000       7.99696223       0.00000000 </v>
     <v>       0.00000000       0.00000000      12.62015584 </v>
    </varray>
    <i name="volume">    807.07669622 </i>
    <varray name="rec_basis" >
     <v>       0.12504748       0.00000000       0.00000000 </v>
     <v>       0.00000000       0.12504748       0.00000000 </v>
     <v>       0.00000000       0.00000000       0.07923832 </v>
    </varray>
   </crystal>
   <varray name="positions" >
    <v>       0.24892513       0.24892513       0.85131440 </v>
    <v>       0.75107487       0.24892513       0.85131440 </v>
    <v>       0.24892513       0.75107487       0.85131440 </v>
    <v>       0.75107487       0.75107487       0.85131440 </v>
    <v>       0.00000000       0.00000000       0.64966926 </v>
    <v>       0.50000000       0.00000000       0.65046065 </v>
    <v>       0.00000000       0.50000000       0.65046065 </v>
    <v>       0.50000000       0.50000000       0.65138018 </v>
    <v>       0.00000000       0.00000000       0.35033074 </v>
    <v>       0.50000000       0.00000000       0.34953935 </v>
    <v>       0.00000000       0.50000000       0.34953935 </v>
    <v>       0.50000000       0.50000000       0.34861982 </v>
    <v>       0.24892513       0.24892513       0.14868560 </v>
    <v>       0.75107487       0.24892513       0.14868560 </v>
    <v>       0.24892513       0.75107487       0.14868560 </v>
    <v>       0.75107487       0.75107487       0.14868560 </v>
    <v>       0.50000000       0.00000000       0.00000000 </v>
    <v>       0.00000000       0.50000000       0.00000000 </v>
    <v>       0.50000000       0.50000000       0.00000000 </v>
    <v>       0.25011274       0.25011274       0.50000000 </v>
    <v>       0.74988726       0.25011274       0.50000000 </v>
    <v>       0.25011274       0.74988726       0.50000000 </v>
    <v>       0.74988726       0.74988726       0.50000000 </v>
    <v>       0.00000000       0.24954168       0.75050174 </v>
    <v>       0.50000000       0.24967602       0.75136499 </v>
    <v>       0.00000000       0.75045832       0.75050174 </v>
    <v>       0.50000000       0.75032398       0.75136499 </v>
    <v>       0.24954168       0.00000000       0.75050174 </v>
    <v>       0.75045832       0.00000000       0.75050174 </v>
    <v>       0.24967602       0.50000000       0.75136499 </v>
    <v>       0.75032398       0.50000000       0.75136499 </v>
    <v>       0.24954168       0.00000000       0.24949826 </v>
    <v>       0.75045832       0.00000000       0.24949826 </v>
    <v>       0.24967602       0.50000000       0.24863501 </v>
    <v>       0.75032398       0.50000000       0.24863501 </v>
    <v>       0.00000000       0.24954168       0.24949826 </v>
    <v>       0.50000000       0.24967602       0.24863501 </v>
    <v>       0.00000000       0.75045832       0.24949826 </v>
    <v>       0.50000000       0.75032398       0.24863501 </v>
    <v>       0.00000000       0.00000000       0.00000000 </v>
   </varray>
  </structure>
  <varray name="forces" >
   <v>       0.00837677       0.00837677       0.00171969 </v>
   <v>      -0.00837677       0.00837677       0.00171969 </v>
   <v>       0.00837677      -0.00837677       0.00171969 </v>
   <v>      -0.00837677      -0.00837677       0.00171969 </v>
   <v>       0.00000000      -0.00000000      -0.00495678 </v>
   <v>      -0.00000000      -0.00000000       0.00165945 </v>
   <v>      -0.00000000      -0.00000000       0.00165945 </v>
   <v>       0.00000000      -0.00000000       0.00748548 </v>
   <v>      -0.00000000      -0.00000000       0.00495678 </v>
   <v>      -0.00000000      -0.00000000      -0.00165945 </v>
   <v>      -0.00000000      -0.00000000      -0.00165945 </v>
   <v>      -0.00000000      -0.00000000      -0.00748548 </v>
   <v>       0.00837677       0.00837677      -0.00171969 </v>
   <v>      -0.00837677       0.00837677      -0.00171969 </v>
   <v>       0.00837677      -0.00837677      -0.00171969 </v>
   <v>      -0.00837677      -0.00837677      -0.00171969 </v>
   <v>       0.00000000      -0.00000000       0.00000000 </v>
   <v>       0.00000000      -0.00000000       0.00000000 </v>
   <v>      -0.00000000      -0.00000000       0.00000000 </v>
   <v>      -0.00442493      -0.00442493       0.00000000 </v>
   <v>       0.00442493      -0.00442493       0.00000000 </v>
   <v>      -0.00442493       0.00442493       0.00000000 </v>
   <v>       0.00442493       0.00442493       0.00000000 </v>
   <v>      -0.00000000       0.00012766       0.00167040 </v>
   <v>      -0.00000000       0.00033006      -0.00406824 </v>
   <v>      -0.00000000      -0.00012766       0.00167040 </v>
   <v>       0.00000000      -0.00033006      -0.00406824 </v>
   <v>       0.00012766      -0.00000000       0.00167040 </v>
   <v>      -0.00012766      -0.00000000       0.00167040 </v>
   <v>       0.00033006      -0.00000000      -0.00406824 </v>
   <v>      -0.00033006      -0.00000000      -0.00406824 </v>
   <v>       0.00012766      -0.00000000      -0.00167040 </v>
   <v>      -0.00012766      -0.00000000      -0.00167040 </v>
   <v>       0.00033006      -0.00000000       0.00406824 </v>
   <v>      -0.00033006      -0.00000000       0.00406824 </v>
   <v>      -0.00000000       0.00012766      -0.00167040 </v>
   <v>       0.00000000       0.00033006       0.00406824 </v>
   <v>       0.00000000      -0.00012766      -0.00167040 </v>
   <v>       0.00000000      -0.00033006       0.00406824 </v>
   <v>       0.00000000      -0.00000000       0.00000000 </v>
  </varray>
  <varray name="stress" >
   <v>     -44.49371809       0.00000000       0.00000000 </v>
   <v>       0.00000000     -44.49371809       0.00000000 </v>
   <v>       0.00000000       0.00000000     -33.19300615 </v>
  </varray>
  <energy>
   <i name="e_fr_energy">   -208.27168888 </i>
   <i name="e_wo_entrp">   -208.27162131 </i>
   <i name="e_0_energy">   -208.27165509 </i>
  </energy>
  <time name="totalsc">  171.22  171.32</time>
 </calculation>
 <calculation>
  <scstep>
   <time name="dav">   28.73   28.77</time>
   <time name="total">   30.80   30.84</time>
   <energy>
[...]
       <r>    5.2684    1.0000 </r>
       <r>    5.2756    1.0000 </r>
       <r>    7.2156    0.0000 </r>
       <r>    7.2355    0.0000 </r>
       <r>    7.2355    0.0000 </r>
       <r>    7.2667    0.0000 </r>
       <r>    7.9173    0.0000 </r>
       <r>    7.9449    0.0000 </r>
       <r>    7.9449    0.0000 </r>
       <r>    7.9752    0.0000 </r>
       <r>    8.4890    0.0000 </r>
       <r>    8.5015    0.0000 </r>
       <r>    8.5193    0.0000 </r>
       <r>    8.5193    0.0000 </r>
       <r>    8.7824    0.0000 </r>
       <r>    8.7939    0.0000 </r>
       <r>    8.8072    0.0000 </r>
       <r>    8.8072    0.0000 </r>
       <r>    8.8281    0.0000 </r>
       <r>    8.8281    0.0000 </r>
       <r>    8.8378    0.0000 </r>
       <r>    8.8606    0.0000 </r>
       <r>    8.9305    0.0000 </r>
       <r>    8.9305    0.0000 </r>
       <r>    8.9469    0.0000 </r>
       <r>    8.9697    0.0000 </r>
       <r>    9.6308    0.0000 </r>
       <r>    9.6308    0.0000 </r>
       <r>    9.6408    0.0000 </r>
       <r>    9.6499    0.0000 </r>
       <r>    9.7364    0.0000 </r>
       <r>    9.7364    0.0000 </r>
       <r>    9.7400    0.0000 </r>
       <r>    9.7550    0.0000 </r>
       <r>   10.3249    0.0000 </r>
       <r>   10.3249    0.0000 </r>
       <r>   10.3496    0.0000 </r>
       <r>   10.4005    0.0000 </r>
       <r>   10.4039    0.0000 </r>
       <r>   10.4301    0.0000 </r>
       <r>   10.4333    0.0000 </r>
       <r>   10.4333    0.0000 </r>
      </set>
     </set>
    </set>
   </array>
  </eigenvalues>
  <separator name="orbital magnetization" >
   <v name="MAGDIPOLOUT">      0.00000000      0.00000000      0.00000000</v>
  </separator>
  <dos>
   <i name="efermi">      5.89003906 </i>
   <total>
    <array>
     <dimension dim="1">gridpoints</dimension>
     <dimension dim="2">spin</dimension>
     <field>energy</field>
     <field>total</field>
     <field>integrated</field>
     <set>
      <set comment="spin 1">
       <r>   -18.8766     0.0000     0.0000 </r>
       <r>   -18.7740     0.0000     0.0000 </r>
       <r>   -18.6714     0.0000     0.0000 </r>
       <r>   -18.5688     0.0000     0.0000 </r>
       <r>   -18.4662     0.0000     0.0000 </r>
       <r>   -18.3636     0.0000     0.0000 </r>
       <r>   -18.2610     0.0000     0.0000 </r>
       <r>   -18.1584     0.0000     0.0000 </r>
       <r>   -18.0558     0.0000     0.0000 </r>
       <r>   -17.9532     0.0000     0.0000 </r>
       <r>   -17.8506     0.0000     0.0000 </r>
       <r>   -17.7480     0.0000     0.0000 </r>
       <r>   -17.6454     0.0000     0.0000 </r>
       <r>   -17.5428     1.8463     0.1894 </r>
       <r>   -17.4402   138.2853    14.3779 </r>
       <r>   -17.3376   398.1363    55.2277 </r>
       <r>   -17.2350   951.9389   152.8991 </r>
       <r>   -17.1324    69.1958   159.9988 </r>
       <r>   -17.0298     0.0119   160.0000 </r>
       <r>   -16.9272     0.0000   160.0000 </r>
       <r>   -16.8246     0.0000   160.0000 </r>
       <r>   -16.7220     0.0000   160.0000 </r>
       <r>   -16.6194     0.0000   160.0000 </r>
       <r>   -16.5168     0.0000   160.0000 </r>
       <r>   -16.4142     0.0000   160.0000 </r>
       <r>   -16.3116     0.0000   160.0000 </r>
       <r>   -16.2090     0.0000   160.0000 </r>
       <r>   -16.1064     0.0000   160.0000 </r>
       <r>   -16.0038     0.0000   160.0000 </r>
       <r>   -15.9012     0.0000   160.0000 </r>
       <r>   -15.7986     0.0000   160.0000 </r>
       <r>   -15.6959     0.0000   160.0000 </r>
       <r>   -15.5933     0.0000   160.0000 </r>
       <r>   -15.4907     0.0000   160.0000 </r>
       <r>   -15.3881     0.0000   160.0000 </r>
       <r>   -15.2855     0.0000   160.0000 </r>
       <r>   -15.1829     0.0000   160.0000 </r>
       <r>   -15.0803     0.0000   160.0000 </r>
       <r>   -14.9777     0.0000   160.0000 </r>
       <r>   -14.8751     0.0000   160.0000 </r>
       <r>   -14.7725     0.0000   160.0000 </r>
       <r>   -14.6699     0.0000   160.0000 </r>
       <r>   -14.5673     0.0000   160.0000 </r>
       <r>   -14.4647     0.0000   160.0000 </r>
       <r>   -14.3621     0.0000   160.0000 </r>
       <r>   -14.2595     0.0000   160.0000 </r>
       <r>   -14.1569     0.0000   160.0000 </r>
       <r>   -14.0543     0.0000   160.0000 </r>
       <r>   -13.9517     0.0000   160.0000 </r>
       <r>   -13.8491     0.0000   160.0000 </r>
       <r>   -13.7465     0.0000   160.0000 </r>
       <r>   -13.6439     0.0000   160.0000 </r>
       <r>   -13.5413     0.0180   160.0018 </r>
       <r>   -13.4387     1.7868   160.1852 </r>
       <r>   -13.3361     8.6569   161.0734 </r>
       <r>   -13.2335    10.3178   162.1320 </r>
       <r>   -13.1309     3.5551   162.4968 </r>
       <r>   -13.0283    16.8111   164.2217 </r>
       <r>   -12.9257     9.9848   165.2461 </r>
       <r>   -12.8231     3.4996   165.6052 </r>
       <r>   -12.7205    12.7979   166.9183 </r>
       <r>   -12.6179    20.8707   169.0597 </r>
       <r>   -12.5153     7.6915   169.8488 </r>
       <r>   -12.4127    13.4679   171.2307 </r>
       <r>   -12.3101     5.6060   171.8059 </r>
       <r>   -12.2075    33.0965   175.2017 </r>
       <r>   -12.1049    20.6084   177.3161 </r>
       <r>   -12.0023    21.1130   179.4824 </r>
       <r>   -11.8997    22.6056   181.8018 </r>
       <r>   -11.7971    37.8645   185.6868 </r>
       <r>   -11.6944     4.8333   186.1827 </r>
       <r>   -11.5918    19.4600   188.1794 </r>
       <r>   -11.4892    16.0247   189.8235 </r>
       <r>   -11.3866    13.9096   191.2507 </r>
       <r>   -11.2840     7.0888   191.9780 </r>
       <r>   -11.1814     0.2142   192.0000 </r>
       <r>   -11.0788     0.0000   192.0000 </r>
       <r>   -10.9762     0.0000   192.0000 </r>
       <r>   -10.8736     0.0000   192.0000 </r>
       <r>   -10.7710     0.0000   192.0000 </r>
       <r>   -10.6684     0.0000   192.0000 </r>
       <r>   -10.5658     0.0000   192.0000 </r>
       <r>   -10.4632     0.0000   192.0000 </r>
       <r>   -10.3606     0.0000   192.0000 </r>
       <r>   -10.2580     0.0000   192.0000 </r>
       <r>   -10.1554     0.0000   192.0000 </r>
       <r>   -10.0528     0.0000   192.0000 </r>
       <r>    -9.9502     0.0000   192.0000 </r>
       <r>    -9.8476     0.0000   192.0000 </r>
       <r>    -9.7450     0.0000   192.0000 </r>
       <r>    -9.6424     0.0000   192.0000 </r>
       <r>    -9.5398     0.0000   192.0000 </r>
       <r>    -9.4372     0.0000   192.0000 </r>
       <r>    -9.3346     0.0000   192.0000 </r>
       <r>    -9.2320     0.0000   192.0000 </r>
       <r>    -9.1294     0.0000   192.0000 </r>
       <r>    -9.0268     0.0000   192.0000 </r>
       <r>    -8.9242     0.0000   192.0000 </r>
       <r>    -8.8216     0.0000   192.0000 </r>
       <r>    -8.7190     0.0000   192.0000 </r>
       <r>    -8.6164     0.0000   192.0000 </r>
       <r>    -8.5138     0.0000   192.0000 </r>
       <r>    -8.4112     0.0000   192.0000 </r>
       <r>    -8.3086     0.0000   192.0000 </r>
       <r>    -8.2060     0.0000   192.0000 </r>
       <r>    -8.1034     0.0000   192.0000 </r>
       <r>    -8.0008     0.0000   192.0000 </r>
       <r>    -7.8982     0.0000   192.0000 </r>
       <r>    -7.7955     0.0000   192.0000 </r>
       <r>    -7.6929     0.0000   192.0000 </r>
       <r>    -7.5903     0.0000   192.0000 </r>
       <r>    -7.4877     0.0000   192.0000 </r>
       <r>    -7.3851     0.0000   192.0000 </r>
       <r>    -7.2825     0.0000   192.0000 </r>
       <r>    -7.1799     0.0000   192.0000 </r>
       <r>    -7.0773     0.0000   192.0000 </r>
       <r>    -6.9747     0.0000   192.0000 </r>
       <r>    -6.8721     0.0000   192.0000 </r>
       <r>    -6.7695     0.0001   192.0000 </r>
       <r>    -6.6669     0.1188   192.0122 </r>
       <r>    -6.5643     1.1927   192.1346 </r>
       <r>    -6.4617     3.9879   192.5437 </r>
       <r>    -6.3591     4.7200   193.0280 </r>
       <r>    -6.2565     3.9980   193.4382 </r>
       <r>    -6.1539    11.4555   194.6136 </r>
       <r>    -6.0513     9.6227   195.6009 </r>
       <r>    -5.9487     8.2870   196.4512 </r>
       <r>    -5.8461    10.3737   197.5155 </r>
       <r>    -5.7435    13.5213   198.9029 </r>
       <r>    -5.6409    13.3789   200.2756 </r>
       <r>    -5.5383    16.1447   201.9321 </r>
       <r>    -5.4357    14.4736   203.4171 </r>
       <r>    -5.3331    18.6276   205.3283 </r>
       <r>    -5.2305    15.7741   206.9468 </r>
       <r>    -5.1279    11.8580   208.1635 </r>
       <r>    -5.0253    16.9244   209.8999 </r>
       <r>    -4.9227    32.5599   213.2407 </r>
       <r>    -4.8201    28.5764   216.1727 </r>
       <r>    -4.7175    45.1128   220.8014 </r>
       <r>    -4.6149    34.5734   224.3487 </r>
       <r>    -4.5123     9.3629   225.3094 </r>
       <r>    -4.4097    13.6742   226.7124 </r>
       <r>    -4.3071    23.0139   229.0737 </r>
       <r>    -4.2045    13.7191   230.4813 </r>
       <r>    -4.1019     8.5292   231.3564 </r>
       <r>    -3.9993     9.8924   232.3714 </r>
       <r>    -3.8967     9.6333   233.3598 </r>
       <r>    -3.7940    11.5599   234.5459 </r>
       <r>    -3.6914     1.9880   234.7498 </r>
       <r>    -3.5888     0.0089   234.7507 </r>
       <r>    -3.4862     5.2404   235.2884 </r>
       <r>    -3.3836    14.8422   236.8113 </r>
       <r>    -3.2810     7.9864   237.6307 </r>
       <r>    -3.1784     1.8618   237.8217 </r>
       <r>    -3.0758     3.3170   238.1620 </r>
       <r>    -2.9732     3.6466   238.5362 </r>
       <r>    -2.8706     6.5464   239.2079 </r>
       <r>    -2.7680     2.1545   239.4289 </r>
       <r>    -2.6654     3.5862   239.7969 </r>
       <r>    -2.5628     0.8687   239.8860 </r>
       <r>    -2.4602     0.7426   239.9622 </r>
       <r>    -2.3576     0.3575   239.9989 </r>
       <r>    -2.2550     0.0109   240.0000 </r>
       <r>    -2.1524     0.0000   240.0000 </r>
       <r>    -2.0498     0.0000   240.0000 </r>
       <r>    -1.9472     0.0000   240.0000 </r>
       <r>    -1.8446     0.0000   240.0000 </r>
       <r>    -1.7420     0.0000   240.0000 </r>
       <r>    -1.6394     0.0000   240.0000 </r>
       <r>    -1.5368     0.0000   240.0000 </r>
       <r>    -1.4342     0.0000   240.0000 </r>
       <r>    -1.3316     0.0000   240.0000 </r>
       <r>    -1.2290     0.0000   240.0000 </r>
       <r>    -1.1264     0.0000   240.0000 </r>
       <r>    -1.0238     0.0000   240.0000 </r>
       <r>    -0.9212     0.0000   240.0000 </r>
       <r>    -0.8186     0.0000   240.0000 </r>
       <r>    -0.7160     0.0000   240.0000 </r>
       <r>    -0.6134     0.0000   240.0000 </r>
       <r>    -0.5108     0.0000   240.0000 </r>
       <r>    -0.4082     0.0000   240.0000 </r>
       <r>    -0.3056     0.0000   240.0000 </r>
       <r>    -0.2030     0.0000   240.0000 </r>
       <r>    -0.1004     0.0065   240.0007 </r>
       <r>     0.0022     1.1942   240.1232 </r>
       <r>     0.1049     5.3138   240.6684 </r>
       <r>     0.2075    20.7306   242.7954 </r>
       <r>     0.3101    28.7387   245.7441 </r>
       <r>     0.4127    36.8863   249.5287 </r>
       <r>     0.5153    35.3377   253.1545 </r>
       <r>     0.6179    17.6742   254.9679 </r>
       <r>     0.7205    13.4554   256.3484 </r>
       <r>     0.8231    31.5761   259.5882 </r>
       <r>     0.9257    20.1997   261.6608 </r>
       <r>     1.0283    17.0240   263.4075 </r>
       <r>     1.1309    13.7893   264.8223 </r>
       <r>     1.2335    34.1444   268.3256 </r>
       <r>     1.3361    18.2807   270.2012 </r>
       <r>     1.4387     8.3430   271.0573 </r>
       <r>     1.5413    14.0818   272.5021 </r>
       <r>     1.6439    35.7469   276.1698 </r>
       <r>     1.7465    31.0041   279.3509 </r>
       <r>     1.8491    25.7419   281.9921 </r>
       <r>     1.9517    25.6303   284.6218 </r>
       <r>     2.0543    29.6596   287.6650 </r>
       <r>     2.1569    30.3596   290.7800 </r>
       <r>     2.2595    42.2341   295.1133 </r>
       <r>     2.3621    36.1843   298.8259 </r>
       <r>     2.4647    23.4880   301.2358 </r>
       <r>     2.5673    19.1459   303.2002 </r>
       <r>     2.6699    34.8732   306.7783 </r>
       <r>     2.7725    21.9720   309.0327 </r>
       <r>     2.8751    10.9274   310.1539 </r>
       <r>     2.9777    21.0452   312.3132 </r>
       <r>     3.0803    35.3920   315.9445 </r>
       <r>     3.1829    50.1115   321.0860 </r>
       <r>     3.2855    25.7934   323.7325 </r>
       <r>     3.3881    29.1337   326.7217 </r>
       <r>     3.4907    27.4483   329.5380 </r>
       <r>     3.5933    31.1953   332.7387 </r>
       <r>     3.6959    12.9047   334.0628 </r>
       <r>     3.7985    23.2134   336.4445 </r>
       <r>     3.9011    17.9568   338.2869 </r>
       <r>     4.0038    13.6778   339.6903 </r>
       <r>     4.1064    13.7703   341.1032 </r>
       <r>     4.2090    14.6849   342.6099 </r>
       <r>     4.3116    16.7584   344.3293 </r>
       <r>     4.4142    16.3994   346.0120 </r>
       <r>     4.5168    15.6311   347.6158 </r>
       <r>     4.6194    33.6573   351.0691 </r>
       <r>     4.7220    58.8896   357.1113 </r>
       <r>     4.8246    60.4186   363.3104 </r>
       <r>     4.9272    45.5537   367.9844 </r>
       <r>     5.0298    35.2880   371.6050 </r>
       <r>     5.1324    24.0511   374.0727 </r>
       <r>     5.2350    19.7967   376.1039 </r>
       <r>     5.3376    33.1142   379.5015 </r>
       <r>     5.4402    21.7124   381.7292 </r>
       <r>     5.5428     8.4956   382.6009 </r>
       <r>     5.6454     4.9559   383.1094 </r>
       <r>     5.7480     6.2715   383.7529 </r>
       <r>     5.8506     2.3379   383.9928 </r>
       <r>     5.9532     0.1776   384.0110 </r>
       <r>     6.0558     0.2958   384.0413 </r>
       <r>     6.1584     0.4132   384.0837 </r>
       <r>     6.2610     0.4007   384.1249 </r>
       <r>     6.3636     0.0240   384.1273 </r>
       <r>     6.4662     0.8330   384.2128 </r>
       <r>     6.5688     1.1228   384.3280 </r>
       <r>     6.6714     0.0568   384.3338 </r>
       <r>     6.7740     0.9099   384.4272 </r>
       <r>     6.8766     3.2976   384.7655 </r>
       <r>     6.9792     3.1437   385.0881 </r>
       <r>     7.0818     5.9147   385.6949 </r>
       <r>     7.1844     5.1549   386.2238 </r>
       <r>     7.2870     6.8324   386.9249 </r>
       <r>     7.3896    11.3338   388.0877 </r>
       <r>     7.4922     7.7240   388.8802 </r>
       <r>     7.5948    13.5758   390.2731 </r>
       <r>     7.6974     5.5199   390.8395 </r>
       <r>     7.8000     8.5767   391.7195 </r>
       <r>     7.9026    14.8052   393.2385 </r>
       <r>     8.0053    38.4240   397.1809 </r>
       <r>     8.1079    20.0837   399.2416 </r>
       <r>     8.2105    21.6300   401.4609 </r>
       <r>     8.3131    29.3780   404.4751 </r>
       <r>     8.4157    28.4081   407.3899 </r>
       <r>     8.5183    14.3576   408.8630 </r>
       <r>     8.6209    23.2009   411.2435 </r>
       <r>     8.7235    19.0304   413.1961 </r>
       <r>     8.8261    25.4707   415.8094 </r>
       <r>     8.9287    31.5124   419.0427 </r>
       <r>     9.0313    23.8196   421.4866 </r>
       <r>     9.1339    26.7619   424.2325 </r>
       <r>     9.2365    35.8829   427.9141 </r>
       <r>     9.3391    32.4504   431.2436 </r>
       <r>     9.4417    25.3902   433.8487 </r>
       <r>     9.5443    21.5055   436.0553 </r>
       <r>     9.6469    29.3881   439.0706 </r>
       <r>     9.7495    21.6519   441.2921 </r>
       <r>     9.8521    15.5881   442.8915 </r>
       <r>     9.9547    24.1203   445.3663 </r>
       <r>    10.0573    15.0899   446.9145 </r>
       <r>    10.1599    33.4470   450.3463 </r>
       <r>    10.2625    52.5705   455.7402 </r>
       <r>    10.3651    40.2995   459.8750 </r>
       <r>    10.4677    27.6910   462.7162 </r>
       <r>    10.5703    12.3076   463.9790 </r>
       <r>    10.6729     0.2051   464.0000 </r>
       <r>    10.7755     0.0000   464.0000 </r>
       <r>    10.8781     0.0000   464.0000 </r>
       <r>    10.9807     0.0000   464.0000 </r>
       <r>    11.0833     0.0000   464.0000 </r>
       <r>    11.1859     0.0000   464.0000 </r>
       <r>    11.2885     0.0000   464.0000 </r>
       <r>    11.3911     0.0000   464.0000 </r>
       <r>    11.4937     0.0000   464.0000 </r>
       <r>    11.5963     0.0000   464.0000 </r>
       <r>    11.6989     0.0000   464.0000 </r>
       <r>    11.8015     0.0000   464.0000 </r>
       <r>    11.9042     0.0000   464.0000 </r>
      </set>
     </set>
    </array>
   </total>
  </dos>
 </calculation>
 <structure name="finalpos" >
  <crystal>
   <varray name="basis" >
    <v>       7.99696223       0.00000000       0.00000000 </v>
    <v>       0.00000000       7.99696223       0.00000000 </v>
    <v>       0.00000000       0.00000000      12.62015584 </v>
   </varray>
   <i name="volume">    807.07669622 </i>
   <varray name="rec_basis" >
    <v>       0.12504748       0.00000000       0.00000000 </v>
    <v>       0.00000000       0.12504748       0.00000000 </v>
    <v>       0.00000000       0.00000000       0.07923832 </v>
   </varray>
  </crystal>
  <varray name="positions" >
   <v>       0.24899440       0.24899440       0.85132627 </v>
   <v>       0.75100560       0.24899440       0.85132627 </v>
   <v>       0.24899440       0.75100560       0.85132627 </v>
   <v>       0.75100560       0.75100560       0.85132627 </v>
   <v>       0.00000000       0.00000000       0.64957235 </v>
   <v>       0.50000000       0.00000000       0.65047622 </v>
   <v>       0.00000000       0.50000000       0.65047622 </v>
   <v>       0.50000000       0.50000000       0.65149418 </v>
   <v>       0.00000000       0.00000000       0.35042765 </v>
   <v>       0.50000000       0.00000000       0.34952378 </v>
   <v>       0.00000000       0.50000000       0.34952378 </v>
   <v>       0.50000000       0.50000000       0.34850582 </v>
   <v>       0.24899440       0.24899440       0.14867373 </v>
   <v>       0.75100560       0.24899440       0.14867373 </v>
   <v>       0.24899440       0.75100560       0.14867373 </v>
   <v>       0.75100560       0.75100560       0.14867373 </v>
   <v>       0.50000000       0.00000000       0.00000000 </v>
   <v>       0.00000000       0.50000000       0.00000000 </v>
   <v>       0.50000000       0.50000000       0.00000000 </v>
   <v>       0.24957841       0.24957841       0.50000000 </v>
   <v>       0.75042159       0.24957841       0.50000000 </v>
   <v>       0.24957841       0.75042159       0.50000000 </v>
   <v>       0.75042159       0.75042159       0.50000000 </v>
   <v>       0.00000000       0.24970078       0.75062894 </v>
   <v>       0.50000000       0.24983746       0.75124504 </v>
   <v>       0.00000000       0.75029922       0.75062894 </v>
   <v>       0.50000000       0.75016254       0.75124504 </v>
   <v>       0.24970078       0.00000000       0.75062894 </v>
   <v>       0.75029922       0.00000000       0.75062894 </v>
   <v>       0.24983746       0.50000000       0.75124504 </v>
   <v>       0.75016254       0.50000000       0.75124504 </v>
   <v>       0.24970078       0.00000000       0.24937106 </v>
   <v>       0.75029922       0.00000000       0.24937106 </v>
   <v>       0.24983746       0.50000000       0.24875496 </v>
   <v>       0.75016254       0.50000000       0.24875496 </v>
   <v>       0.00000000       0.24970078       0.24937106 </v>
   <v>       0.50000000       0.24983746       0.24875496 </v>
   <v>       0.00000000       0.75029922       0.24937106 </v>
   <v>       0.50000000       0.75016254       0.24875496 </v>
   <v>       0.00000000       0.00000000       0.00000000 </v>
  </varray>
 </structure>
</modeling>
