unknown system                          
           1
     7.996962    0.000000    0.000000
     0.000000    7.996962    0.000000
     0.000000    0.000000   12.620156
   Bi   Se   O    S 
    16     7    16     1
Direct configuration=     1
   0.24891108  0.24891108  0.85428186
   0.75108892  0.24891108  0.85428186
   0.24891108  0.75108892  0.85428186
   0.75108892  0.75108892  0.85428186
   0.00000000  0.00000000  0.64671764
   0.50000000  0.00000000  0.64751587
   0.00000000  0.50000000  0.64751587
   0.50000000  0.50000000  0.64841730
   0.00000000  0.00000000  0.35328236
   0.50000000  0.00000000  0.35248413
   0.00000000  0.50000000  0.35248413
   0.50000000  0.50000000  0.35158270
   0.24891108  0.24891108  0.14571814
   0.75108892  0.24891108  0.14571814
   0.24891108  0.75108892  0.14571814
   0.75108892  0.75108892  0.14571814
   0.50000000  0.00000000  0.00000000
   0.00000000  0.50000000  0.00000000
   0.50000000  0.50000000  0.00000000
   0.25013764  0.25013764  0.50000000
   0.74986236  0.25013764  0.50000000
   0.25013764  0.74986236  0.50000000
   0.74986236  0.74986236  0.50000000
   0.00000000  0.24953518  0.75047350
   0.50000000  0.24967019  0.75139378
   0.00000000  0.75046482  0.75047350
   0.50000000  0.75032981  0.75139378
   0.24953518  0.00000000  0.75047350
   0.75046482  0.00000000  0.75047350
   0.24967019  0.50000000  0.75139378
   0.75032981  0.50000000  0.75139378
   0.24953518  0.00000000  0.24952650
   0.75046482  0.00000000  0.24952650
   0.24967019  0.50000000  0.24860622
   0.75032981  0.50000000  0.24860622
   0.00000000  0.24953518  0.24952650
   0.50000000  0.24967019  0.24860622
   0.00000000  0.75046482  0.24952650
   0.50000000  0.75032981  0.24860622
   0.00000000  0.00000000  0.00000000
Direct configuration=     2
   0.24892230  0.24892230  0.85191153
   0.75107770  0.24892230  0.85191153
   0.24892230  0.75107770  0.85191153
   0.75107770  0.75107770  0.85191153
   1.00000000  0.00000000  0.64907531
   0.50000000  0.00000000  0.64986808
   0.00000000  0.50000000  0.64986808
   0.50000000  0.50000000  0.65078397
   0.00000000  0.00000000  0.35092469
   0.50000000  0.00000000  0.35013192
   1.00000000  0.50000000  0.35013192
   0.50000000  0.50000000  0.34921603
   0.24892230  0.24892230  0.14808847
   0.75107770  0.24892230  0.14808847
   0.24892230  0.75107770  0.14808847
   0.75107770  0.75107770  0.14808847
   0.50000000  0.00000000  0.00000000
   0.00000000  0.50000000  0.00000000
   0.50000000  0.50000000  0.00000000
   0.25011775  0.25011775  0.50000000
   0.74988225  0.25011775  0.50000000
   0.25011775  0.74988225  0.50000000
   0.74988225  0.74988225  0.50000000
   1.00000000  0.24954037  0.75049606
   0.50000000  0.24967485  0.75137079
   0.00000000  0.75045963  0.75049606
   0.50000000  0.75032515  0.75137079
   0.24954037  0.00000000  0.75049606
   0.75045963  0.00000000  0.75049606
   0.24967485  0.50000000  0.75137079
   0.75032515  0.50000000  0.75137079
   0.24954037  0.00000000  0.24950394
   0.75045963  0.00000000  0.24950394
   0.24967485  0.50000000  0.24862921
   0.75032515  0.50000000  0.24862921
   1.00000000  0.24954037  0.24950394
   0.50000000  0.24967485  0.24862921
   0.00000000  0.75045963  0.24950394
   0.50000000  0.75032515  0.24862921
   0.00000000  0.00000000  0.00000000
Direct configuration=     3
   0.24892516  0.24892516  0.85130945
   0.75107484  0.24892516  0.85130945
   0.24892516  0.75107484  0.85130945
   0.75107484  0.75107484  0.85130945
   0.00000000  0.00000000  0.64967418
   0.50000000  0.00000000  0.65046556
   0.00000000  0.50000000  0.65046556
   0.50000000  0.50000000  0.65138513
   0.00000000  0.00000000  0.35032582
   0.50000000  0.00000000  0.34953444
   0.00000000  0.50000000  0.34953444
   0.50000000  0.50000000  0.34861487
   0.24892516  0.24892516  0.14869055
   0.75107484  0.24892516  0.14869055
   0.24892516  0.75107484  0.14869055
   0.75107484  0.75107484  0.14869055
   0.50000000  0.00000000  0.00000000
   0.00000000  0.50000000  0.00000000
   0.50000000  0.50000000  0.00000000
   0.25011269  0.25011269  0.50000000
   0.74988731  0.25011269  0.50000000
   0.25011269  0.74988731  0.50000000
   0.74988731  0.74988731  0.50000000
   0.00000000  0.24954169  0.75050179
   0.50000000  0.24967603  0.75136495
   0.00000000  0.75045831  0.75050179
   0.50000000  0.75032397  0.75136495
   0.24954169  0.00000000  0.75050179
   0.75045831  0.00000000  0.75050179
   0.24967603  0.50000000  0.75136495
   0.75032397  0.50000000  0.75136495
   0.24954169  0.00000000  0.24949821
   0.75045831  0.00000000  0.24949821
   0.24967603  0.50000000  0.24863505
   0.75032397  0.50000000  0.24863505
   0.00000000  0.24954169  0.24949821
   0.50000000  0.24967603  0.24863505
   0.00000000  0.75045831  0.24949821
   0.50000000  0.75032397  0.24863505
   0.00000000  0.00000000  0.00000000
Direct configuration=     4
   0.24892513  0.24892513  0.85131464
   0.75107487  0.24892513  0.85131464
   0.24892513  0.75107487  0.85131464
   0.75107487  0.75107487  0.85131464
   0.00000000  0.00000000  0.64966902
   0.50000000  0.00000000  0.65046041
   0.00000000  0.50000000  0.65046041
   0.50000000  0.50000000  0.65137994
   0.00000000  0.00000000  0.35033098
   0.50000000  0.00000000  0.34953959
   0.00000000  0.50000000  0.34953959
   0.50000000  0.50000000  0.34862006
   0.24892513  0.24892513  0.14868536
   0.75107487  0.24892513  0.14868536
   0.24892513  0.75107487  0.14868536
   0.75107487  0.75107487  0.14868536
   0.50000000  0.00000000  0.00000000
   0.00000000  0.50000000  0.00000000
   0.50000000  0.50000000  0.00000000
   0.25011274  0.25011274  0.50000000
   0.74988726  0.25011274  0.50000000
   0.25011274  0.74988726  0.50000000
   0.74988726  0.74988726  0.50000000
   0.00000000  0.24954168  0.75050174
   0.50000000  0.24967602  0.75136500
   0.00000000  0.75045832  0.75050174
   0.50000000  0.75032398  0.75136500
   0.24954168  0.00000000  0.75050174
   0.75045832  0.00000000  0.75050174
   0.24967602  0.50000000  0.75136500
   0.75032398  0.50000000  0.75136500
   0.24954168  0.00000000  0.24949826
   0.75045832  0.00000000  0.24949826
   0.24967602  0.50000000  0.24863500
   0.75032398  0.50000000  0.24863500
   0.00000000  0.24954168  0.24949826
   0.50000000  0.24967602  0.24863500
   0.00000000  0.75045832  0.24949826
   0.50000000  0.75032398  0.24863500
   0.00000000  0.00000000  0.00000000
Direct configuration=     5
   0.24892513  0.24892513  0.85131440
   0.75107487  0.24892513  0.85131440
   0.24892513  0.75107487  0.85131440
   0.75107487  0.75107487  0.85131440
   0.00000000  0.00000000  0.64966926
   0.50000000  0.00000000  0.65046065
   0.00000000  0.50000000  0.65046065
   0.50000000  0.50000000  0.65138018
   0.00000000  0.00000000  0.35033074
   0.50000000  0.00000000  0.34953935
   0.00000000  0.50000000  0.34953935
   0.50000000  0.50000000  0.34861982
   0.24892513  0.24892513  0.14868560
   0.75107487  0.24892513  0.14868560
   0.24892513  0.75107487  0.14868560
   0.75107487  0.75107487  0.14868560
   0.50000000  0.00000000  0.00000000
   0.00000000  0.50000000  0.00000000
   0.50000000  0.50000000  0.00000000
   0.25011274  0.25011274  0.50000000
   0.74988726  0.25011274  0.50000000
   0.25011274  0.74988726  0.50000000
   0.74988726  0.74988726  0.50000000
   0.00000000  0.24954168  0.75050174
   0.50000000  0.24967602  0.75136499
   0.00000000  0.75045832  0.75050174
   0.50000000  0.75032398  0.75136499
   0.24954168  0.00000000  0.75050174
   0.75045832  0.00000000  0.75050174
   0.24967602  0.50000000  0.75136499
   0.75032398  0.50000000  0.75136499
   0.24954168  0.00000000  0.24949826
   0.75045832  0.00000000  0.24949826
   0.24967602  0.50000000  0.24863501
   0.75032398  0.50000000  0.24863501
   0.00000000  0.24954168  0.24949826
   0.50000000  0.24967602  0.24863501
   0.00000000  0.75045832  0.24949826
   0.50000000  0.75032398  0.24863501
   0.00000000  0.00000000  0.00000000
Direct configuration=     6
   0.24892513  0.24892513  0.85131453
   0.75107487  0.24892513  0.85131453
   0.24892513  0.75107487  0.85131453
   0.75107487  0.75107487  0.85131453
   0.00000000  0.00000000  0.64966913
   0.50000000  0.00000000  0.65046051
   0.00000000  0.50000000  0.65046051
   0.50000000  0.50000000  0.65138005
   0.00000000  0.00000000  0.35033087
   0.50000000  0.00000000  0.34953949
   0.00000000  0.50000000  0.34953949
   0.50000000  0.50000000  0.34861995
   0.24892513  0.24892513  0.14868547
   0.75107487  0.24892513  0.14868547
   0.24892513  0.75107487  0.14868547
   0.75107487  0.75107487  0.14868547
   0.50000000  0.00000000  0.00000000
   0.00000000  0.50000000  0.00000000
   0.50000000  0.50000000  0.00000000
   0.25011274  0.25011274  0.50000000
   0.74988726  0.25011274  0.50000000
   0.25011274  0.74988726  0.50000000
   0.74988726  0.74988726  0.50000000
   0.00000000  0.24954168  0.75050174
   0.50000000  0.24967602  0.75136499
   0.00000000  0.75045832  0.75050174
   0.50000000  0.75032398  0.75136499
   0.24954168  0.00000000  0.75050174
   0.75045832  0.00000000  0.75050174
   0.24967602  0.50000000  0.75136499
   0.75032398  0.50000000  0.75136499
   0.24954168  0.00000000  0.24949826
   0.75045832  0.00000000  0.24949826
   0.24967602  0.50000000  0.24863501
   0.75032398  0.50000000  0.24863501
   0.00000000  0.24954168  0.24949826
   0.50000000  0.24967602  0.24863501
   0.00000000  0.75045832  0.24949826
   0.50000000  0.75032398  0.24863501
   0.00000000  0.00000000  0.00000000
Direct configuration=     7
   0.24892513  0.24892513  0.85131447
   0.75107487  0.24892513  0.85131447
   0.24892513  0.75107487  0.85131447
   0.75107487  0.75107487  0.85131447
   0.00000000  0.00000000  0.64966919
   0.50000000  0.00000000  0.65046058
   0.00000000  0.50000000  0.65046058
   0.50000000  0.50000000  0.65138012
   0.00000000  0.00000000  0.35033081
   0.50000000  0.00000000  0.34953942
   0.00000000  0.50000000  0.34953942
   0.50000000  0.50000000  0.34861988
   0.24892513  0.24892513  0.14868553
   0.75107487  0.24892513  0.14868553
   0.24892513  0.75107487  0.14868553
   0.75107487  0.75107487  0.14868553
   0.50000000  0.00000000  0.00000000
   0.00000000  0.50000000  0.00000000
   0.50000000  0.50000000  0.00000000
   0.25011274  0.25011274  0.50000000
   0.74988726  0.25011274  0.50000000
   0.25011274  0.74988726  0.50000000
   0.74988726  0.74988726  0.50000000
   0.00000000  0.24954168  0.75050174
   0.50000000  0.24967602  0.75136499
   0.00000000  0.75045832  0.75050174
   0.50000000  0.75032398  0.75136499
   0.24954168  0.00000000  0.75050174
   0.75045832  0.00000000  0.75050174
   0.24967602  0.50000000  0.75136499
   0.75032398  0.50000000  0.75136499
   0.24954168  0.00000000  0.24949826
   0.75045832  0.00000000  0.24949826
   0.24967602  0.50000000  0.24863501
   0.75032398  0.50000000  0.24863501
   0.00000000  0.24954168  0.24949826
   0.50000000  0.24967602  0.24863501
   0.00000000  0.75045832  0.24949826
   0.50000000  0.75032398  0.24863501
   0.00000000  0.00000000  0.00000000
Direct configuration=     8
   0.24897822  0.24897822  0.85132045
   0.75102178  0.24897822  0.85132045
   0.24897822  0.75102178  0.85132045
   0.75102178  0.75102178  0.85132045
   0.00000000  0.00000000  0.64965022
   0.50000000  0.00000000  0.65046816
   0.00000000  0.50000000  0.65046816
   0.50000000  0.50000000  0.65141111
   0.00000000  0.00000000  0.35034978
   0.50000000  0.00000000  0.34953184
   0.00000000  0.50000000  0.34953184
   0.50000000  0.50000000  0.34858889
   0.24897822  0.24897822  0.14867955
   0.75102178  0.24897822  0.14867955
   0.24897822  0.75102178  0.14867955
   0.75102178  0.75102178  0.14867955
   0.50000000  0.00000000  0.00000000
   0.00000000  0.50000000  0.00000000
   0.50000000  0.50000000  0.00000000
   0.25008469  0.25008469  0.50000000
   0.74991531  0.25008469  0.50000000
   0.25008469  0.74991531  0.50000000
   0.74991531  0.74991531  0.50000000
   0.00000000  0.24954249  0.75050846
   0.50000000  0.24967812  0.75134865
   0.00000000  0.75045751  0.75050846
   0.50000000  0.75032188  0.75134865
   0.24954249  0.00000000  0.75050846
   0.75045751  0.00000000  0.75050846
   0.24967812  0.50000000  0.75134865
   0.75032188  0.50000000  0.75134865
   0.24954249  0.00000000  0.24949154
   0.75045751  0.00000000  0.24949154
   0.24967812  0.50000000  0.24865135
   0.75032188  0.50000000  0.24865135
   0.00000000  0.24954249  0.24949154
   0.50000000  0.24967812  0.24865135
   0.00000000  0.75045751  0.24949154
   0.50000000  0.75032188  0.24865135
   0.00000000  0.00000000  0.00000000
Direct configuration=     9
   0.24900367  0.24900367  0.85132332
   0.75099633  0.24900367  0.85132332
   0.24900367  0.75099633  0.85132332
   0.75099633  0.75099633  0.85132332
   0.00000000  0.00000000  0.64964112
   0.50000000  0.00000000  0.65047180
   0.00000000  0.50000000  0.65047180
   0.50000000  0.50000000  0.65142598
   0.00000000  0.00000000  0.35035888
   0.50000000  0.00000000  0.34952820
   0.00000000  0.50000000  0.34952820
   0.50000000  0.50000000  0.34857402
   0.24900367  0.24900367  0.14867668
   0.75099633  0.24900367  0.14867668
   0.24900367  0.75099633  0.14867668
   0.75099633  0.75099633  0.14867668
   0.50000000  0.00000000  0.00000000
   0.00000000  0.50000000  0.00000000
   0.50000000  0.50000000  0.00000000
   0.25007124  0.25007124  0.50000000
   0.74992876  0.25007124  0.50000000
   0.25007124  0.74992876  0.50000000
   0.74992876  0.74992876  0.50000000
   0.00000000  0.24954288  0.75051168
   0.50000000  0.24967912  0.75134081
   0.00000000  0.75045712  0.75051168
   0.50000000  0.75032088  0.75134081
   0.24954288  0.00000000  0.75051168
   0.75045712  0.00000000  0.75051168
   0.24967912  0.50000000  0.75134081
   0.75032088  0.50000000  0.75134081
   0.24954288  0.00000000  0.24948832
   0.75045712  0.00000000  0.24948832
   0.24967912  0.50000000  0.24865919
   0.75032088  0.50000000  0.24865919
   0.00000000  0.24954288  0.24948832
   0.50000000  0.24967912  0.24865919
   0.00000000  0.75045712  0.24948832
   0.50000000  0.75032088  0.24865919
   0.00000000  0.00000000  0.00000000
Direct configuration=    10
   0.24901042  0.24901042  0.85132006
   0.75098958  0.24901042  0.85132006
   0.24901042  0.75098958  0.85132006
   0.75098958  0.75098958  0.85132006
   0.00000000  0.00000000  0.64964112
   0.50000000  0.00000000  0.65046898
   0.00000000  0.50000000  0.65046898
   0.50000000  0.50000000  0.65141806
   0.00000000  0.00000000  0.35035888
   0.50000000  0.00000000  0.34953102
   0.00000000  0.50000000  0.34953102
   0.50000000  0.50000000  0.34858194
   0.24901042  0.24901042  0.14867994
   0.75098958  0.24901042  0.14867994
   0.24901042  0.75098958  0.14867994
   0.75098958  0.75098958  0.14867994
   0.50000000  0.00000000  0.00000000
   0.00000000  0.50000000  0.00000000
   0.50000000  0.50000000  0.00000000
   0.25003908  0.25003908  0.50000000
   0.74996092  0.25003908  0.50000000
   0.25003908  0.74996092  0.50000000
   0.74996092  0.74996092  0.50000000
   0.00000000  0.24956133  0.75052877
   0.50000000  0.24969838  0.75133153
   0.00000000  0.75043867  0.75052877
   0.50000000  0.75030162  0.75133153
   0.24956133  0.00000000  0.75052877
   0.75043867  0.00000000  0.75052877
   0.24969838  0.50000000  0.75133153
   0.75030162  0.50000000  0.75133153
   0.24956133  0.00000000  0.24947123
   0.75043867  0.00000000  0.24947123
   0.24969838  0.50000000  0.24866847
   0.75030162  0.50000000  0.24866847
   0.00000000  0.24956133  0.24947123
   0.50000000  0.24969838  0.24866847
   0.00000000  0.75043867  0.24947123
   0.50000000  0.75030162  0.24866847
   0.00000000  0.00000000  0.00000000
Direct configuration=    11
   0.24903069  0.24903069  0.85131029
   0.75096931  0.24903069  0.85131029
   0.24903069  0.75096931  0.85131029
   0.75096931  0.75096931  0.85131029
   0.00000000  0.00000000  0.64964111
   0.50000000  0.00000000  0.65046051
   0.00000000  0.50000000  0.65046051
   0.50000000  0.50000000  0.65139431
   0.00000000  0.00000000  0.35035889
   0.50000000  0.00000000  0.34953949
   0.00000000  0.50000000  0.34953949
   0.50000000  0.50000000  0.34860569
   0.24903069  0.24903069  0.14868971
   0.75096931  0.24903069  0.14868971
   0.24903069  0.75096931  0.14868971
   0.75096931  0.75096931  0.14868971
   0.50000000  0.00000000  0.00000000
   0.00000000  0.50000000  0.00000000
   0.50000000  0.50000000  0.00000000
   0.24994261  0.24994261  0.50000000
   0.75005739  0.24994261  0.50000000
   0.24994261  0.75005739  0.50000000
   0.75005739  0.75005739  0.50000000
   0.00000000  0.24961665  0.75058006
   0.50000000  0.24975617  0.75130367
   0.00000000  0.75038335  0.75058006
   0.50000000  0.75024383  0.75130367
   0.24961665  0.00000000  0.75058006
   0.75038335  0.00000000  0.75058006
   0.24975617  0.50000000  0.75130367
   0.75024383  0.50000000  0.75130367
   0.24961665  0.00000000  0.24941994
   0.75038335  0.00000000  0.24941994
   0.24975617  0.50000000  0.24869633
   0.75024383  0.50000000  0.24869633
   0.00000000  0.24961665  0.24941994
   0.50000000  0.24975617  0.24869633
   0.00000000  0.75038335  0.24941994
   0.50000000  0.75024383  0.24869633
   0.00000000  0.00000000  0.00000000
Direct configuration=    12
   0.24902748  0.24902748  0.85131771
   0.75097252  0.24902748  0.85131771
   0.24902748  0.75097252  0.85131771
   0.75097252  0.75097252  0.85131771
   0.00000000  0.00000000  0.64965584
   0.50000000  0.00000000  0.65046811
   0.00000000  0.50000000  0.65046811
   0.50000000  0.50000000  0.65139382
   0.00000000  0.00000000  0.35034416
   0.50000000  0.00000000  0.34953189
   0.00000000  0.50000000  0.34953189
   0.50000000  0.50000000  0.34860618
   0.24902748  0.24902748  0.14868229
   0.75097252  0.24902748  0.14868229
   0.24902748  0.75097252  0.14868229
   0.75097252  0.75097252  0.14868229
   0.50000000  0.00000000  0.00000000
   0.00000000  0.50000000  0.00000000
   0.50000000  0.50000000  0.00000000
   0.24990534  0.24990534  0.50000000
   0.75009466  0.24990534  0.50000000
   0.24990534  0.75009466  0.50000000
   0.75009466  0.75009466  0.50000000
   0.00000000  0.24963234  0.75058536
   0.50000000  0.24977189  0.75128684
   0.00000000  0.75036766  0.75058536
   0.50000000  0.75022811  0.75128684
   0.24963234  0.00000000  0.75058536
   0.75036766  0.00000000  0.75058536
   0.24977189  0.50000000  0.75128684
   0.75022811  0.50000000  0.75128684
   0.24963234  0.00000000  0.24941464
   0.75036766  0.00000000  0.24941464
   0.24977189  0.50000000  0.24871316
   0.75022811  0.50000000  0.24871316
   0.00000000  0.24963234  0.24941464
   0.50000000  0.24977189  0.24871316
   0.00000000  0.75036766  0.24941464
   0.50000000  0.75022811  0.24871316
   0.00000000  0.00000000  0.00000000
Direct configuration=    13
   0.24902262  0.24902262  0.85132890
   0.75097738  0.24902262  0.85132890
   0.24902262  0.75097738  0.85132890
   0.75097738  0.75097738  0.85132890
   0.00000000  0.00000000  0.64967807
   0.50000000  0.00000000  0.65047958
   0.00000000  0.50000000  0.65047958
   0.50000000  0.50000000  0.65139307
   0.00000000  0.00000000  0.35032193
   0.50000000  0.00000000  0.34952042
   0.00000000  0.50000000  0.34952042
   0.50000000  0.50000000  0.34860693
   0.24902262  0.24902262  0.14867110
   0.75097738  0.24902262  0.14867110
   0.24902262  0.75097738  0.14867110
   0.75097738  0.75097738  0.14867110
   0.50000000  0.00000000  0.00000000
   0.00000000  0.50000000  0.00000000
   0.50000000  0.50000000  0.00000000
   0.24984912  0.24984912  0.50000000
   0.75015088  0.24984912  0.50000000
   0.24984912  0.75015088  0.50000000
   0.75015088  0.75015088  0.50000000
   0.00000000  0.24965602  0.75059337
   0.50000000  0.24979561  0.75126146
   0.00000000  0.75034398  0.75059337
   0.50000000  0.75020439  0.75126146
   0.24965602  0.00000000  0.75059337
   0.75034398  0.00000000  0.75059337
   0.24979561  0.50000000  0.75126146
   0.75020439  0.50000000  0.75126146
   0.24965602  0.00000000  0.24940663
   0.75034398  0.00000000  0.24940663
   0.24979561  0.50000000  0.24873854
   0.75020439  0.50000000  0.24873854
   0.00000000  0.24965602  0.24940663
   0.50000000  0.24979561  0.24873854
   0.00000000  0.75034398  0.24940663
   0.50000000  0.75020439  0.24873854
   0.00000000  0.00000000  0.00000000
Direct configuration=    14
   0.24902177  0.24902177  0.85132816
   0.75097823  0.24902177  0.85132816
   0.24902177  0.75097823  0.85132816
   0.75097823  0.75097823  0.85132816
   0.00000000  0.00000000  0.64967772
   0.50000000  0.00000000  0.65047867
   0.00000000  0.50000000  0.65047867
   0.50000000  0.50000000  0.65139177
   0.00000000  0.00000000  0.35032228
   0.50000000  0.00000000  0.34952133
   0.00000000  0.50000000  0.34952133
   0.50000000  0.50000000  0.34860823
   0.24902177  0.24902177  0.14867184
   0.75097823  0.24902177  0.14867184
   0.24902177  0.75097823  0.14867184
   0.75097823  0.75097823  0.14867184
   0.50000000  0.00000000  0.00000000
   0.00000000  0.50000000  0.00000000
   0.50000000  0.50000000  0.00000000
   0.24980130  0.24980130  0.50000000
   0.75019870  0.24980130  0.50000000
   0.24980130  0.75019870  0.50000000
   0.75019870  0.75019870  0.50000000
   0.00000000  0.24966567  0.75060499
   0.50000000  0.24980457  0.75125307
   0.00000000  0.75033433  0.75060499
   0.50000000  0.75019543  0.75125307
   0.24966567  0.00000000  0.75060499
   0.75033433  0.00000000  0.75060499
   0.24980457  0.50000000  0.75125307
   0.75019543  0.50000000  0.75125307
   0.24966567  0.00000000  0.24939501
   0.75033433  0.00000000  0.24939501
   0.24980457  0.50000000  0.24874693
   0.75019543  0.50000000  0.24874693
   0.00000000  0.24966567  0.24939501
   0.50000000  0.24980457  0.24874693
   0.00000000  0.75033433  0.24939501
   0.50000000  0.75019543  0.24874693
   0.00000000  0.00000000  0.00000000
Direct configuration=    15
   0.24901962  0.24901962  0.85132628
   0.75098038  0.24901962  0.85132628
   0.24901962  0.75098038  0.85132628
   0.75098038  0.75098038  0.85132628
   0.00000000  0.00000000  0.64967683
   0.50000000  0.00000000  0.65047639
   0.00000000  0.50000000  0.65047639
   0.50000000  0.50000000  0.65138847
   0.00000000  0.00000000  0.35032317
   0.50000000  0.00000000  0.34952361
   0.00000000  0.50000000  0.34952361
   0.50000000  0.50000000  0.34861153
   0.24901962  0.24901962  0.14867372
   0.75098038  0.24901962  0.14867372
   0.24901962  0.75098038  0.14867372
   0.75098038  0.75098038  0.14867372
   0.50000000  0.00000000  0.00000000
   0.00000000  0.50000000  0.00000000
   0.50000000  0.50000000  0.00000000
   0.24968034  0.24968034  0.50000000
   0.75031966  0.24968034  0.50000000
   0.24968034  0.75031966  0.50000000
   0.75031966  0.75031966  0.50000000
   0.00000000  0.24969009  0.75063437
   0.50000000  0.24982724  0.75123185
   0.00000000  0.75030991  0.75063437
   0.50000000  0.75017276  0.75123185
   0.24969009  0.00000000  0.75063437
   0.75030991  0.00000000  0.75063437
   0.24982724  0.50000000  0.75123185
   0.75017276  0.50000000  0.75123185
   0.24969009  0.00000000  0.24936563
   0.75030991  0.00000000  0.24936563
   0.24982724  0.50000000  0.24876815
   0.75017276  0.50000000  0.24876815
   0.00000000  0.24969009  0.24936563
   0.50000000  0.24982724  0.24876815
   0.00000000  0.75030991  0.24936563
   0.50000000  0.75017276  0.24876815
   0.00000000  0.00000000  0.00000000
Direct configuration=    16
   0.24902686  0.24902686  0.85132303
   0.75097314  0.24902686  0.85132303
   0.24902686  0.75097314  0.85132303
   0.75097314  0.75097314  0.85132303
   0.00000000  0.00000000  0.64965011
   0.50000000  0.00000000  0.65047294
   0.00000000  0.50000000  0.65047294
   0.50000000  0.50000000  0.65140924
   0.00000000  0.00000000  0.35034989
   0.50000000  0.00000000  0.34952706
   0.00000000  0.50000000  0.34952706
   0.50000000  0.50000000  0.34859076
   0.24902686  0.24902686  0.14867697
   0.75097314  0.24902686  0.14867697
   0.24902686  0.75097314  0.14867697
   0.75097314  0.75097314  0.14867697
   0.50000000  0.00000000  0.00000000
   0.00000000  0.50000000  0.00000000
   0.50000000  0.50000000  0.00000000
   0.24966702  0.24966702  0.50000000
   0.75033298  0.24966702  0.50000000
   0.24966702  0.75033298  0.50000000
   0.75033298  0.75033298  0.50000000
   0.00000000  0.24968725  0.75063736
   0.50000000  0.24982485  0.75123526
   0.00000000  0.75031275  0.75063736
   0.50000000  0.75017515  0.75123526
   0.24968725  0.00000000  0.75063736
   0.75031275  0.00000000  0.75063736
   0.24982485  0.50000000  0.75123526
   0.75017515  0.50000000  0.75123526
   0.24968725  0.00000000  0.24936264
   0.75031275  0.00000000  0.24936264
   0.24982485  0.50000000  0.24876474
   0.75017515  0.50000000  0.24876474
   0.00000000  0.24968725  0.24936264
   0.50000000  0.24982485  0.24876474
   0.00000000  0.75031275  0.24936264
   0.50000000  0.75017515  0.24876474
   0.00000000  0.00000000  0.00000000
Direct configuration=    17
   0.24902850  0.24902850  0.85132230
   0.75097150  0.24902850  0.85132230
   0.24902850  0.75097150  0.85132230
   0.75097150  0.75097150  0.85132230
   0.00000000  0.00000000  0.64964407
   0.50000000  0.00000000  0.65047217
   0.00000000  0.50000000  0.65047217
   0.50000000  0.50000000  0.65141393
   0.00000000  0.00000000  0.35035593
   0.50000000  0.00000000  0.34952783
   0.00000000  0.50000000  0.34952783
   0.50000000  0.50000000  0.34858607
   0.24902850  0.24902850  0.14867770
   0.75097150  0.24902850  0.14867770
   0.24902850  0.75097150  0.14867770
   0.75097150  0.75097150  0.14867770
   0.50000000  0.00000000  0.00000000
   0.00000000  0.50000000  0.00000000
   0.50000000  0.50000000  0.00000000
   0.24966401  0.24966401  0.50000000
   0.75033599  0.24966401  0.50000000
   0.24966401  0.75033599  0.50000000
   0.75033599  0.75033599  0.50000000
   0.00000000  0.24968660  0.75063804
   0.50000000  0.24982431  0.75123603
   0.00000000  0.75031340  0.75063804
   0.50000000  0.75017569  0.75123603
   0.24968660  0.00000000  0.75063804
   0.75031340  0.00000000  0.75063804
   0.24982431  0.50000000  0.75123603
   0.75017569  0.50000000  0.75123603
   0.24968660  0.00000000  0.24936196
   0.75031340  0.00000000  0.24936196
   0.24982431  0.50000000  0.24876397
   0.75017569  0.50000000  0.24876397
   0.00000000  0.24968660  0.24936196
   0.50000000  0.24982431  0.24876397
   0.00000000  0.75031340  0.24936196
   0.50000000  0.75017569  0.24876397
   0.00000000  0.00000000  0.00000000
Direct configuration=    18
   0.24902134  0.24902134  0.85132449
   0.75097866  0.24902134  0.85132449
   0.24902134  0.75097866  0.85132449
   0.75097866  0.75097866  0.85132449
   0.00000000  0.00000000  0.64962704
   0.50000000  0.00000000  0.65047454
   0.00000000  0.50000000  0.65047454
   0.50000000  0.50000000  0.65143662
   0.00000000  0.00000000  0.35037296
   0.50000000  0.00000000  0.34952546
   0.00000000  0.50000000  0.34952546
   0.50000000  0.50000000  0.34856338
   0.24902134  0.24902134  0.14867551
   0.75097866  0.24902134  0.14867551
   0.24902134  0.75097866  0.14867551
   0.75097866  0.75097866  0.14867551
   0.50000000  0.00000000  0.00000000
   0.00000000  0.50000000  0.00000000
   0.50000000  0.50000000  0.00000000
   0.24965336  0.24965336  0.50000000
   0.75034664  0.24965336  0.50000000
   0.24965336  0.75034664  0.50000000
   0.75034664  0.75034664  0.50000000
   0.00000000  0.24968746  0.75063361
   0.50000000  0.24982526  0.75123691
   0.00000000  0.75031254  0.75063361
   0.50000000  0.75017474  0.75123691
   0.24968746  0.00000000  0.75063361
   0.75031254  0.00000000  0.75063361
   0.24982526  0.50000000  0.75123691
   0.75017474  0.50000000  0.75123691
   0.24968746  0.00000000  0.24936639
   0.75031254  0.00000000  0.24936639
   0.24982526  0.50000000  0.24876309
   0.75017474  0.50000000  0.24876309
   0.00000000  0.24968746  0.24936639
   0.50000000  0.24982526  0.24876309
   0.00000000  0.75031254  0.24936639
   0.50000000  0.75017474  0.24876309
   0.00000000  0.00000000  0.00000000
Direct configuration=    19
   0.24901554  0.24901554  0.85132626
   0.75098446  0.24901554  0.85132626
   0.24901554  0.75098446  0.85132626
   0.75098446  0.75098446  0.85132626
   0.00000000  0.00000000  0.64961325
   0.50000000  0.00000000  0.65047647
   0.00000000  0.50000000  0.65047647
   0.50000000  0.50000000  0.65145498
   0.00000000  0.00000000  0.35038675
   0.50000000  0.00000000  0.34952353
   0.00000000  0.50000000  0.34952353
   0.50000000  0.50000000  0.34854502
   0.24901554  0.24901554  0.14867374
   0.75098446  0.24901554  0.14867374
   0.24901554  0.75098446  0.14867374
   0.75098446  0.75098446  0.14867374
   0.50000000  0.00000000  0.00000000
   0.00000000  0.50000000  0.00000000
   0.50000000  0.50000000  0.00000000
   0.24964474  0.24964474  0.50000000
   0.75035526  0.24964474  0.50000000
   0.24964474  0.75035526  0.50000000
   0.75035526  0.75035526  0.50000000
   0.00000000  0.24968815  0.75063002
   0.50000000  0.24982602  0.75123762
   0.00000000  0.75031185  0.75063002
   0.50000000  0.75017398  0.75123762
   0.24968815  0.00000000  0.75063002
   0.75031185  0.00000000  0.75063002
   0.24982602  0.50000000  0.75123762
   0.75017398  0.50000000  0.75123762
   0.24968815  0.00000000  0.24936998
   0.75031185  0.00000000  0.24936998
   0.24982602  0.50000000  0.24876238
   0.75017398  0.50000000  0.24876238
   0.00000000  0.24968815  0.24936998
   0.50000000  0.24982602  0.24876238
   0.00000000  0.75031185  0.24936998
   0.50000000  0.75017398  0.24876238
   0.00000000  0.00000000  0.00000000
Direct configuration=    20
   0.24900395  0.24900395  0.85132980
   0.75099605  0.24900395  0.85132980
   0.24900395  0.75099605  0.85132980
   0.75099605  0.75099605  0.85132980
   0.00000000  0.00000000  0.64958568
   0.50000000  0.00000000  0.65048032
   0.00000000  0.50000000  0.65048032
   0.50000000  0.50000000  0.65149170
   0.00000000  0.00000000  0.35041432