  40  40   0   0
  0.1682163E+02  0.7526553E-09  0.7526553E-09  0.1187779E-08  0.5000000E-15
  1.000000000000000E-004
  CAR 
 unknown system                          
     15.48878466    -16.70588648  301      7.99010917      1.00000000
    -16.706  0.0000E+00  0.0000E+00
    -16.599  0.0000E+00  0.0000E+00
    -16.491  0.0000E+00  0.0000E+00
    -16.384  0.0000E+00  0.0000E+00
    -16.277  0.0000E+00  0.0000E+00
    -16.169  0.0000E+00  0.0000E+00
    -16.062  0.0000E+00  0.0000E+00
    -15.955  0.0000E+00  0.0000E+00
    -15.847  0.0000E+00  0.0000E+00
    -15.740  0.0000E+00  0.0000E+00
    -15.633  0.0000E+00  0.0000E+00
    -15.525  0.9052E-17  0.9714E-18
    -15.418  0.1184E-07  0.1270E-08
    -15.311  0.3919E-02  0.4205E-03
    -15.203  0.8465E+00  0.9127E-01
    -15.096  0.1432E+01  0.2449E+00
    -14.989  0.1992E+01  0.4587E+00
    -14.882  0.7695E+01  0.1285E+01
    -14.774  0.2926E+01  0.1599E+01
    -14.667  0.1335E-01  0.1600E+01
    -14.560  0.4325E-07  0.1600E+01
    -14.452  0.9052E-17  0.1600E+01
    -14.345  0.0000E+00  0.1600E+01
    -14.238  0.0000E+00  0.1600E+01
    -14.130  0.0000E+00  0.1600E+01
    -14.023  0.0000E+00  0.1600E+01
    -13.916  0.0000E+00  0.1600E+01
    -13.808  0.0000E+00  0.1600E+01
    -13.701  0.0000E+00  0.1600E+01
    -13.594  0.0000E+00  0.1600E+01
    -13.486  0.0000E+00  0.1600E+01
    -13.379  0.0000E+00  0.1600E+01
    -13.272  0.0000E+00  0.1600E+01
    -13.164  0.0000E+00  0.1600E+01
    -13.057  0.0000E+00  0.1600E+01
    -12.950  0.0000E+00  0.1600E+01
    -12.843  0.0000E+00  0.1600E+01
    -12.735  0.0000E+00  0.1600E+01
    -12.628  0.0000E+00  0.1600E+01
    -12.521  0.0000E+00  0.1600E+01
    -12.413  0.2863E-14  0.1600E+01
    -12.306  0.1575E-06  0.1600E+01
    -12.199  0.1802E-02  0.1600E+01
    -12.091  0.2180E-01  0.1603E+01
    -11.984  0.7519E-01  0.1611E+01
    -11.877  0.7844E-01  0.1619E+01
    -11.769  0.3254E-01  0.1623E+01
    -11.662  0.3872E-01  0.1627E+01
    -11.555  0.1267E+00  0.1640E+01
    -11.447  0.1126E+00  0.1652E+01
    -11.340  0.2059E-02  0.1653E+01
    -11.233  0.5045E-01  0.1658E+01
    -11.125  0.9199E-01  0.1668E+01
    -11.018  0.1775E+00  0.1687E+01
    -10.911  0.5252E-01  0.1693E+01
    -10.804  0.8624E-01  0.1702E+01
    -10.696  0.9916E-01  0.1712E+01
    -10.589  0.5158E-02  0.1713E+01
    -10.482  0.1930E+00  0.1734E+01
    -10.374  0.1943E+00  0.1755E+01
    -10.267  0.1568E+00  0.1771E+01
    -10.160  0.1317E+00  0.1786E+01
    -10.052  0.1117E+00  0.1797E+01
     -9.945  0.2886E+00  0.1828E+01
     -9.838  0.2688E+00  0.1857E+01
     -9.730  0.6874E-02  0.1858E+01
     -9.623  0.8620E-01  0.1867E+01
     -9.516  0.2254E+00  0.1891E+01
     -9.408  0.5902E-01  0.1898E+01
     -9.301  0.1031E+00  0.1909E+01
     -9.194  0.9258E-01  0.1919E+01
     -9.086  0.1106E-01  0.1920E+01
     -8.979  0.1690E-04  0.1920E+01
     -8.872  0.5804E-11  0.1920E+01
     -8.765  0.0000E+00  0.1920E+01
     -8.657  0.0000E+00  0.1920E+01
     -8.550  0.0000E+00  0.1920E+01
     -8.443  0.0000E+00  0.1920E+01
     -8.335  0.0000E+00  0.1920E+01
     -8.228  0.0000E+00  0.1920E+01
     -8.121  0.0000E+00  0.1920E+01
     -8.013  0.0000E+00  0.1920E+01
     -7.906  0.0000E+00  0.1920E+01
     -7.799  0.0000E+00  0.1920E+01
     -7.691  0.0000E+00  0.1920E+01
     -7.584  0.0000E+00  0.1920E+01
     -7.477  0.0000E+00  0.1920E+01
     -7.369  0.0000E+00  0.1920E+01
     -7.262  0.0000E+00  0.1920E+01
     -7.155  0.0000E+00  0.1920E+01
     -7.047  0.0000E+00  0.1920E+01
     -6.940  0.0000E+00  0.1920E+01
     -6.833  0.0000E+00  0.1920E+01
     -6.726  0.0000E+00  0.1920E+01
     -6.618  0.0000E+00  0.1920E+01
     -6.511  0.0000E+00  0.1920E+01
     -6.404  0.0000E+00  0.1920E+01
     -6.296  0.0000E+00  0.1920E+01
     -6.189  0.0000E+00  0.1920E+01
     -6.082  0.8353E-14  0.1920E+01
     -5.974  0.1934E-06  0.1920E+01
     -5.867  0.7606E-03  0.1920E+01
     -5.760  0.4249E-02  0.1921E+01
     -5.652  0.2071E-01  0.1923E+01
     -5.545  0.3686E-01  0.1927E+01
     -5.438  0.2853E-01  0.1930E+01
     -5.330  0.2376E-01  0.1932E+01
     -5.223  0.4438E-01  0.1937E+01
     -5.116  0.8698E-01  0.1946E+01
     -5.008  0.7848E-01  0.1955E+01
     -4.901  0.3417E-01  0.1959E+01
     -4.794  0.6086E-01  0.1965E+01
     -4.687  0.7556E-01  0.1973E+01
     -4.579  0.7051E-01  0.1981E+01
     -4.472  0.9850E-01  0.1991E+01
     -4.365  0.6749E-01  0.1999E+01
     -4.257  0.8218E-01  0.2007E+01
     -4.150  0.1219E+00  0.2020E+01
     -4.043  0.9288E-01  0.2030E+01
     -3.935  0.8888E-01  0.2040E+01
     -3.828  0.1257E+00  0.2053E+01
     -3.721  0.8235E-01  0.2062E+01
     -3.613  0.6259E-01  0.2069E+01
     -3.506  0.5851E-01  0.2075E+01
     -3.399  0.4511E-01  0.2080E+01
     -3.291  0.7740E-01  0.2088E+01
     -3.184  0.1210E+00  0.2101E+01
     -3.077  0.1442E+00  0.2117E+01
     -2.969  0.2746E+00  0.2146E+01
     -2.862  0.2641E+00  0.2175E+01
     -2.755  0.3542E+00  0.2213E+01
     -2.648  0.1404E+00  0.2228E+01
     -2.540  0.6863E-01  0.2235E+01
     -2.433  0.1756E+00  0.2254E+01
     -2.326  0.1037E+00  0.2265E+01
     -2.218  0.1146E+00  0.2277E+01
     -2.111  0.1395E+00  0.2292E+01
     -2.004  0.1138E+00  0.2305E+01
     -1.896  0.1303E+00  0.2319E+01
     -1.789  0.3254E-01  0.2322E+01
     -1.682  0.1584E-01  0.2324E+01
     -1.574  0.7961E-01  0.2332E+01
     -1.467  0.7653E-01  0.2341E+01
     -1.360  0.4437E-01  0.2345E+01
     -1.252  0.2065E-01  0.2347E+01
     -1.145  0.2055E-01  0.2350E+01
     -1.038  0.9406E-01  0.2360E+01
     -0.930  0.1121E+00  0.2372E+01
     -0.823  0.4733E-01  0.2377E+01
     -0.716  0.7456E-02  0.2378E+01
     -0.609  0.2099E-01  0.2380E+01
     -0.501  0.4013E-01  0.2384E+01
     -0.394  0.1728E-01  0.2386E+01
     -0.287  0.5378E-01  0.2392E+01
     -0.179  0.1183E-01  0.2393E+01
     -0.072  0.2397E-01  0.2396E+01
      0.035  0.2063E-01  0.2398E+01
      0.143  0.7576E-02  0.2399E+01
      0.250  0.9682E-03  0.2399E+01
      0.357  0.6587E-02  0.2400E+01
      0.465  0.2537E-02  0.2400E+01
      0.572  0.1570E-02  0.2400E+01
      0.679  0.2045E-05  0.2400E+01
      0.787  0.5374E-12  0.2400E+01
      0.894  0.0000E+00  0.2400E+01
      1.001  0.0000E+00  0.2400E+01
      1.108  0.0000E+00  0.2400E+01
      1.216  0.1156E-11  0.2400E+01
      1.323  0.4624E-05  0.2400E+01
      1.430  0.4723E-02  0.2401E+01
      1.538  0.2601E-01  0.2403E+01
      1.645  0.2115E+00  0.2426E+01
      1.752  0.2951E+00  0.2458E+01
      1.860  0.1525E+00  0.2474E+01
      1.967  0.1330E+00  0.2488E+01
      2.074  0.2108E+00  0.2511E+01
      2.182  0.2806E+00  0.2541E+01
      2.289  0.3072E+00  0.2574E+01
      2.396  0.2143E+00  0.2597E+01
      2.504  0.1374E+00  0.2612E+01
      2.611  0.1786E+00  0.2631E+01
      2.718  0.1999E+00  0.2652E+01
      2.826  0.1707E+00  0.2671E+01
      2.933  0.9377E-01  0.2681E+01
      3.040  0.2915E+00  0.2712E+01
      3.147  0.3328E+00  0.2748E+01
      3.255  0.2370E+00  0.2773E+01
      3.362  0.2286E+00  0.2798E+01
      3.469  0.1815E+00  0.2817E+01
      3.577  0.1861E+00  0.2837E+01
      3.684  0.2127E+00  0.2860E+01
      3.791  0.2712E+00  0.2889E+01
      3.899  0.2630E+00  0.2917E+01
      4.006  0.1056E+00  0.2929E+01
      4.113  0.1489E+00  0.2945E+01
      4.221  0.2285E+00  0.2969E+01
      4.328  0.3471E+00  0.3006E+01
      4.435  0.2462E+00  0.3033E+01
      4.543  0.2489E+00  0.3059E+01
      4.650  0.1316E+00  0.3074E+01
      4.757  0.2069E+00  0.3096E+01
      4.865  0.1887E+00  0.3116E+01
      4.972  0.2025E+00  0.3138E+01
      5.079  0.1276E+00  0.3152E+01
      5.186  0.1704E+00  0.3170E+01
      5.294  0.3279E+00  0.3205E+01
      5.401  0.3450E+00  0.3242E+01
      5.508  0.2727E+00  0.3271E+01
      5.616  0.3543E+00  0.3309E+01
      5.723  0.3745E+00  0.3349E+01
      5.830  0.2346E+00  0.3375E+01
      5.938  0.3181E+00  0.3409E+01
      6.045  0.3247E+00  0.3444E+01
      6.152  0.2086E+00  0.3466E+01
      6.260  0.1509E+00  0.3482E+01
      6.367  0.3714E+00  0.3522E+01
      6.474  0.3082E+00  0.3555E+01
      6.582  0.2889E+00  0.3586E+01
      6.689  0.3753E+00  0.3626E+01
      6.796  0.2383E+00  0.3652E+01
      6.904  0.2807E+00  0.3682E+01
      7.011  0.2836E+00  0.3713E+01
      7.118  0.1443E+00  0.3728E+01
      7.225  0.1938E+00  0.3749E+01
      7.333  0.1103E+00  0.3761E+01
      7.440  0.1690E+00  0.3779E+01
      7.547  0.2121E+00  0.3802E+01
      7.655  0.2305E+00  0.3826E+01
      7.762  0.1247E+00  0.3840E+01
      7.869  0.3040E-02  0.3840E+01
      7.977  0.8293E-07  0.3840E+01
      8.084  0.4052E-15  0.3840E+01
      8.191  0.8190E-17  0.3840E+01
      8.299  0.2896E-08  0.3840E+01
      8.406  0.1467E-03  0.3840E+01
      8.513  0.3332E-02  0.3840E+01
      8.621  0.1425E-02  0.3841E+01
      8.728  0.6682E-02  0.3841E+01
      8.835  0.6547E-02  0.3842E+01
      8.943  0.1280E-02  0.3842E+01
      9.050  0.2359E-06  0.3842E+01
      9.157  0.1145E-03  0.3842E+01
      9.264  0.2373E-01  0.3845E+01
      9.372  0.5544E-01  0.3851E+01
      9.479  0.4614E-01  0.3856E+01
      9.586  0.1108E-01  0.3857E+01
      9.694  0.4708E-01  0.3862E+01
      9.801  0.8368E-01  0.3871E+01
      9.908  0.6387E-01  0.3878E+01
     10.016  0.7809E-01  0.3886E+01
     10.123  0.8154E-01  0.3895E+01
     10.230  0.6363E-01  0.3902E+01
     10.338  0.1430E+00  0.3917E+01
     10.445  0.5974E-01  0.3923E+01
     10.552  0.2631E+00  0.3952E+01
     10.660  0.2587E+00  0.3979E+01
     10.767  0.2153E+00  0.4002E+01
     10.874  0.1348E+00  0.4017E+01
     10.982  0.1497E+00  0.4033E+01
     11.089  0.2308E+00  0.4058E+01
     11.196  0.2627E+00  0.4086E+01
     11.303  0.1794E+00  0.4105E+01
     11.411  0.2616E+00  0.4133E+01
     11.518  0.3941E+00  0.4176E+01
     11.625  0.2070E+00  0.4198E+01
     11.733  0.1627E+00  0.4215E+01
     11.840  0.1678E+00  0.4233E+01
     11.947  0.2337E+00  0.4258E+01
     12.055  0.1967E+00  0.4279E+01
     12.162  0.3048E+00  0.4312E+01
     12.269  0.1565E+00  0.4329E+01
     12.377  0.1274E+00  0.4343E+01
     12.484  0.1420E+00  0.4358E+01
     12.591  0.1198E+00  0.4371E+01
     12.699  0.1531E+00  0.4387E+01
     12.806  0.2042E+00  0.4409E+01
     12.913  0.1642E+00  0.4427E+01
     13.021  0.2674E+00  0.4455E+01
     13.128  0.3657E+00  0.4495E+01
     13.235  0.2935E+00  0.4526E+01
     13.342  0.1858E+00  0.4546E+01
     13.450  0.1840E+00  0.4566E+01
     13.557  0.2433E+00  0.4592E+01
     13.664  0.2494E+00  0.4619E+01
     13.772  0.9734E-01  0.4629E+01
     13.879  0.7603E-01  0.4637E+01
     13.986  0.1497E-01  0.4639E+01
     14.094  0.1039E-01  0.4640E+01
     14.201  0.2166E-03  0.4640E+01
     14.308  0.2646E-08  0.4640E+01
     14.416  0.5173E-17  0.4640E+01
     14.523  0.0000E+00  0.4640E+01
     14.630  0.0000E+00  0.4640E+01
     14.738  0.0000E+00  0.4640E+01
     14.845  0.0000E+00  0.4640E+01
     14.952  0.0000E+00  0.4640E+01
     15.060  0.0000E+00  0.4640E+01
     15.167  0.0000E+00  0.4640E+01
     15.274  0.0000E+00  0.4640E+01
     15.381  0.0000E+00  0.4640E+01
     15.489  0.0000E+00  0.4640E+01
