 vasp.6.4.3 19Mar24 (build Apr 09 2025 20:43:19) complex                        
  
 executed on             LinuxIFC date 2025.04.12  17:26:22
 running   36 mpi-ranks, on    1 nodes
 distrk:  each k-point on   36 cores,    1 groups
 distr:  one band on NCORE=   9 cores,    4 groups


--------------------------------------------------------------------------------------------------------


 INCAR:
   PREC = Accurate
   IBRION = 2
   NSW = 100
   NELMIN = 5
   ISIF = 2
   ENCUT = 520
   EDIFF = 1.000000e-08
   EDIFFG = -1.000000e-5
   ISMEAR = 0
   SIGMA = 0.05
   IALGO = 38
   LREAL = .FALSE.
   ADDGRID = .TRUE.
   LWAVE = .FALSE.
   LCHARG = .FALSE.
   NCORE = 9

 POTCAR:    PAW_PBE Bi_d 06Sep2000                
 POTCAR:    PAW_PBE Se 06Sep2000                  
 POTCAR:    PAW_PBE O 08Apr2002                   
 POTCAR:    PAW_PBE S 06Sep2000                   
 POTCAR:    PAW_PBE Bi_d 06Sep2000                
   SHA256 =  572e7eac3f9482ff025db24f2820381a7a3856069fa85913dc654793f618f69a Bi_d/POTCAR           
   COPYR  = (c) Copyright 06Sep2000 Georg Kresse                                                    
   COPYR  = This file is part of the software VASP. Any use, copying, and all other rights are regul
   COPYR  = If you do not have a valid VASP license, you may not use, copy or distribute this file. 
   VRHFIN =Bi:                                                                                      
   LEXCH  = PE                                                                                      
   EATOM  =  1959.2045 eV,  143.9975 Ry                                                             
                                                                                                    
   TITEL  = PAW_PBE Bi_d 06Sep2000                                                                  
   LULTRA =        F    use ultrasoft PP ?                                                          
   IUNSCR =        1    unscreen: 0-lin 1-nonlin 2-no                                               
   RPACOR =    2.200    partial core radius                                                         
   POMASS =  208.980; ZVAL   =   15.000    mass and valenz                                          
   RCORE  =    2.500    outmost cutoff radius                                                       
   RWIGS  =    3.090; RWIGS  =    1.635    wigner-seitz radius (au A)                               
   ENMAX  =  242.839; ENMIN  =  182.129 eV                                                          
   ICORE  =        3    local potential                                                             
   LCOR   =        T    correct aug charges                                                         
   LPAW   =        T    paw PP                                                                      
   EAUG   =  442.899                                                                                
   DEXC   =    0.000                                                                                
   RMAX   =    2.551    core radius for proj-oper                                                   
   RAUG   =    1.300    factor for augmentation sphere                                              
   RDEP   =    2.650    radius for radial grids                                                     
   RDEPT  =    2.039    core radius for aug-charge                                                  
                                                                                                    
   Atomic configuration                                                                             
   16 entries                                                                                       
     n  l   j            E        occ.                                                              
     1  0  0.50    -90639.6581   2.0000                                                             
     2  0  0.50    -16282.4666   2.0000                                                             
     2  1  1.50    -13922.8286   6.0000                                                             
     3  0  0.50     -3930.4763   2.0000                                                             
     3  1  1.50     -3256.7013   6.0000                                                             
     3  2  2.50     -2581.6168  10.0000                                                             
     4  0  0.50      -902.2614   2.0000                                                             
     4  1  1.50      -681.5915   6.0000                                                             
     4  2  2.50      -429.8249  10.0000                                                             
     4  3  3.50      -152.6004  14.0000                                                             
     5  0  0.50      -157.7156   2.0000                                                             
     5  1  1.50       -95.8054   6.0000                                                             
     5  2  2.50       -27.0806  10.0000                                                             
     6  0  0.50       -14.4732   2.0000                                                             
     6  1  1.50        -4.5702   3.0000                                                             
     5  3  2.50        -2.7212   0.0000                                                             
   Description                                                                                      
     l       E           TYP  RCUT    TYP  RCUT                                                     
     2    -27.0805982     23  2.500                                                                 
     2     -1.3605826     23  2.500                                                                 
     0    -14.4732271     23  2.500                                                                 
     0      6.8029130     23  2.500                                                                 
     1     -4.5701651     23  2.500                                                                 
     1     13.6058260     23  2.500                                                                 
     3     -1.3605826      7  2.500                                                                 
  local pseudopotential read in
  partial core-charges read in
  partial kinetic energy density read in
  atomic valenz-charges read in
  non local Contribution for L=           2  read in
    real space projection operators read in
  non local Contribution for L=           2  read in
    real space projection operators read in
  non local Contribution for L=           0  read in
    real space projection operators read in
  non local Contribution for L=           0  read in
    real space projection operators read in
  non local Contribution for L=           1  read in
    real space projection operators read in
  non local Contribution for L=           1  read in
    real space projection operators read in
    PAW grid and wavefunctions read in
 
   number of l-projection  operators is LMAX  =           6
   number of lm-projection operators is LMMAX =          18
 
 POTCAR:    PAW_PBE Se 06Sep2000                  
   SHA256 =  eabb916e6b4c819dc065ce039373bc328651da483898f08fb9e49c498452bf12 Se/POTCAR             
   COPYR  = (c) Copyright 06Sep2000 Georg Kresse                                                    
   COPYR  = This file is part of the software VASP. Any use, copying, and all other rights are regul
   COPYR  = If you do not have a valid VASP license, you may not use, copy or distribute this file. 
   VRHFIN =Se: s2p4                                                                                 
   LEXCH  = PE                                                                                      
   EATOM  =   257.1286 eV,   18.8984 Ry                                                             
                                                                                                    
   TITEL  = PAW_PBE Se 06Sep2000                                                                    
   LULTRA =        F    use ultrasoft PP ?                                                          
   IUNSCR =        1    unscreen: 0-lin 1-nonlin 2-no                                               
   RPACOR =    1.900    partial core radius                                                         
   POMASS =   78.960; ZVAL   =    6.000    mass and valenz                                          
   RCORE  =    2.100    outmost cutoff radius                                                       
   RWIGS  =    2.200; RWIGS  =    1.164    wigner-seitz radius (au A)                               
   ENMAX  =  211.555; ENMIN  =  158.666 eV                                                          
   ICORE  =        3    local potential                                                             
   LCOR   =        T    correct aug charges                                                         
   LPAW   =        T    paw PP                                                                      
   EAUG   =  446.842                                                                                
   DEXC   =    0.000                                                                                
   RMAX   =    2.147    core radius for proj-oper                                                   
   RAUG   =    1.300    factor for augmentation sphere                                              
   RDEP   =    2.177    radius for radial grids                                                     
   RDEPT  =    1.928    core radius for aug-charge                                                  
                                                                                                    
   Atomic configuration                                                                             
   10 entries                                                                                       
     n  l   j            E        occ.                                                              
     1  0  0.50    -12503.4787   2.0000                                                             
     2  0  0.50     -1606.9547   2.0000                                                             
     2  1  1.50     -1413.3140   6.0000                                                             
     3  0  0.50      -213.4885   2.0000                                                             
     3  1  1.50      -152.9538   6.0000                                                             
     3  2  2.50       -53.1221  10.0000                                                             
     4  0  0.50       -17.2865   2.0000                                                             
     4  1  0.50        -6.5110   4.0000                                                             
     4  2  2.50        -6.8029   0.0000                                                             
     4  3  2.50        -6.8029   0.0000                                                             
   Description                                                                                      
     l       E           TYP  RCUT    TYP  RCUT                                                     
     0    -17.2865377     23  2.100                                                                 
     0    -15.3094411     23  2.100                                                                 
     1     -6.5110275     23  2.100                                                                 
     1     -0.0695192     23  2.100                                                                 
     2     -6.8029130     23  2.100                                                                 
     3     -1.3605826      7  2.100                                                                 
  local pseudopotential read in
  partial core-charges read in
  partial kinetic energy density read in
  atomic valenz-charges read in
  non local Contribution for L=           0  read in
    real space projection operators read in
  non local Contribution for L=           0  read in
    real space projection operators read in
  non local Contribution for L=           1  read in
    real space projection operators read in
  non local Contribution for L=           1  read in
    real space projection operators read in
  non local Contribution for L=           2  read in
    real space projection operators read in
    PAW grid and wavefunctions read in
 
   number of l-projection  operators is LMAX  =           5
   number of lm-projection operators is LMMAX =          13
 
 POTCAR:    PAW_PBE O 08Apr2002                   
   SHA256 =  818f92134a0a090dccd8ba1447fa70422a3b330e708bb4f08108d8ae51209ddf O/POTCAR              
   COPYR  = (c) Copyright 08Apr2002 Georg Kresse                                                    
   COPYR  = This file is part of the software VASP. Any use, copying, and all other rights are regul
   COPYR  = If you do not have a valid VASP license, you may not use, copy or distribute this file. 
   VRHFIN =O: s2p4                                                                                  
   LEXCH  = PE                                                                                      
   EATOM  =   432.3788 eV,   31.7789 Ry                                                             
                                                                                                    
   TITEL  = PAW_PBE O 08Apr2002                                                                     
   LULTRA =        F    use ultrasoft PP ?                                                          
   IUNSCR =        1    unscreen: 0-lin 1-nonlin 2-no                                               
   RPACOR =    1.200    partial core radius                                                         
   POMASS =   16.000; ZVAL   =    6.000    mass and valenz                                          
   RCORE  =    1.520    outmost cutoff radius                                                       
   RWIGS  =    1.550; RWIGS  =    0.820    wigner-seitz radius (au A)                               
   ENMAX  =  400.000; ENMIN  =  300.000 eV                                                          
   ICORE  =        2    local potential                                                             
   LCOR   =        T    correct aug charges                                                         
   LPAW   =        T    paw PP                                                                      
   EAUG   =  605.392                                                                                
   DEXC   =    0.000                                                                                
   RMAX   =    1.553    core radius for proj-oper                                                   
   RAUG   =    1.300    factor for augmentation sphere                                              
   RDEP   =    1.550    radius for radial grids                                                     
   RDEPT  =    1.329    core radius for aug-charge                                                  
                                                                                                    
   Atomic configuration                                                                             
    4 entries                                                                                       
     n  l   j            E        occ.                                                              
     1  0  0.50      -514.6923   2.0000                                                             
     2  0  0.50       -23.9615   2.0000                                                             
     2  1  0.50        -9.0305   4.0000                                                             
     3  2  1.50        -9.5241   0.0000                                                             
   Description                                                                                      
     l       E           TYP  RCUT    TYP  RCUT                                                     
     0    -23.9615318     23  1.200                                                                 
     0     -9.5240782     23  1.200                                                                 
     1     -9.0304911     23  1.520                                                                 
     1      8.1634956     23  1.520                                                                 
     2     -9.5240782      7  1.500                                                                 
  local pseudopotential read in
  partial core-charges read in
  partial kinetic energy density read in
  kinetic energy density of atom read in
  atomic valenz-charges read in
  non local Contribution for L=           0  read in
    real space projection operators read in
  non local Contribution for L=           0  read in
    real space projection operators read in
  non local Contribution for L=           1  read in
    real space projection operators read in
  non local Contribution for L=           1  read in
    real space projection operators read in
    PAW grid and wavefunctions read in
 
   number of l-projection  operators is LMAX  =           4
   number of lm-projection operators is LMMAX =           8
 
 POTCAR:    PAW_PBE S 06Sep2000                   
   SHA256 =  0fc7481fb0695f01bdc6462160264c5c84044ae9ec85a907d398b887a2bc3132 S/POTCAR              
   COPYR  = (c) Copyright 06Sep2000 Georg Kresse                                                    
   COPYR  = This file is part of the software VASP. Any use, copying, and all other rights are regul
   COPYR  = If you do not have a valid VASP license, you may not use, copy or distribute this file. 
   VRHFIN =S : s2p4                                                                                 
   LEXCH  = PE                                                                                      
   EATOM  =   276.8230 eV,   20.3459 Ry                                                             
                                                                                                    
   TITEL  = PAW_PBE S 06Sep2000                                                                     
   LULTRA =        F    use ultrasoft PP ?                                                          
   IUNSCR =        1    unscreen: 0-lin 1-nonlin 2-no                                               
   RPACOR =    1.500    partial core radius                                                         
   POMASS =   32.066; ZVAL   =    6.000    mass and valenz                                          
   RCORE  =    1.900    outmost cutoff radius                                                       
   RWIGS  =    2.200; RWIGS  =    1.164    wigner-seitz radius (au A)                               
   ENMAX  =  258.689; ENMIN  =  194.016 eV                                                          
   ICORE  =        2    local potential                                                             
   LCOR   =        T    correct aug charges                                                         
   LPAW   =        T    paw PP                                                                      
   EAUG   =  335.092                                                                                
   DEXC   =    0.000                                                                                
   RMAX   =    1.942    core radius for proj-oper                                                   
   RAUG   =    1.300    factor for augmentation sphere                                              
   RDEP   =    1.954    radius for radial grids                                                     
   RDEPT  =    1.744    core radius for aug-charge                                                  
                                                                                                    
   Atomic configuration                                                                             
    6 entries                                                                                       
     n  l   j            E        occ.                                                              
     1  0  0.50     -2405.8406   2.0000                                                             
     2  0  0.50      -211.7007   2.0000                                                             
     2  1  1.50      -156.4958   6.0000                                                             
     3  0  0.50       -17.2562   2.0000                                                             
     3  1  0.50        -7.0085   4.0000                                                             
     3  2  1.50        -6.8029   0.0000                                                             
   Description                                                                                      
     l       E           TYP  RCUT    TYP  RCUT                                                     
     0    -17.2561641     23  1.900                                                                 
     0    -15.8743224     23  1.900                                                                 
     1     -7.0085400     23  1.900                                                                 
     1     -2.7779785     23  1.900                                                                 
     2     -6.8029130     23  1.900                                                                 
  local pseudopotential read in
  partial core-charges read in
  partial kinetic energy density read in
  atomic valenz-charges read in
  non local Contribution for L=           0  read in
    real space projection operators read in
  non local Contribution for L=           0  read in
    real space projection operators read in
  non local Contribution for L=           1  read in
    real space projection operators read in
  non local Contribution for L=           1  read in
    real space projection operators read in
    PAW grid and wavefunctions read in
 
   number of l-projection  operators is LMAX  =           4
   number of lm-projection operators is LMMAX =           8
 
 -----------------------------------------------------------------------------
|                                                                             |
|               ----> ADVICE to this user running VASP <----                  |
|                                                                             |
|     You have a (more or less) 'large supercell' and for larger cells it     |
|     might be more efficient to use real-space projection operators.         |
|     Therefore, try LREAL= Auto in the INCAR file.                           |
|     Mind: For very accurate calculation, you might also keep the            |
|     reciprocal projection scheme (i.e. LREAL=.FALSE.).                      |
|                                                                             |
 -----------------------------------------------------------------------------

  PAW_PBE Bi_d 06Sep2000                :
 energy of atom  1       EATOM=-1959.2045
 kinetic energy error for atom=    0.0040 (will be added to EATOM!!)
  PAW_PBE Se 06Sep2000                  :
 energy of atom  2       EATOM= -257.1286
 kinetic energy error for atom=    0.0007 (will be added to EATOM!!)
  PAW_PBE O 08Apr2002                   :
 energy of atom  3       EATOM= -432.3788
 kinetic energy error for atom=    0.0208 (will be added to EATOM!!)
  PAW_PBE S 06Sep2000                   :
 energy of atom  4       EATOM= -276.8230
 kinetic energy error for atom=    0.0016 (will be added to EATOM!!)
 
 
 POSCAR: generated by phonopy
  positions in direct lattice
  velocities in cartesian coordinates


 exchange-correlation table for PE
   RHO(1)=    0.500       N(1)  =     2000
   RHO(2)=  100.500       N(2)  =     4000
 


--------------------------------------------------------------------------------------------------------


 ion  position               nearest neighbor table
   1  0.249  0.249  0.860-  24 2.28  28 2.28  25 2.29  30 2.29  40 3.13  18 3.14  17 3.14  19 3.15
                            13 3.33   5 3.71   7 3.71   6 3.71   8 3.71   3 3.74   2 3.74   3 3.78
   2  0.751  0.249  0.860-  24 2.28  29 2.28  25 2.29  31 2.29  40 3.13  18 3.14  17 3.14  19 3.15
                            14 3.33   5 3.71   7 3.71   6 3.71   8 3.71   4 3.74   1 3.74   4 3.78
   3  0.249  0.751  0.860-  26 2.28  28 2.28  27 2.29  30 2.29  40 3.13  18 3.14  17 3.14  19 3.15
                            15 3.33   5 3.71   7 3.71   6 3.71   8 3.71   4 3.74   1 3.74   4 3.78
   4  0.751  0.751  0.860-  26 2.28  29 2.28  27 2.29  31 2.29  40 3.13  18 3.14  17 3.14  19 3.15
                            16 3.33   5 3.71   7 3.71   6 3.71   8 3.71   3 3.74   2 3.74   2 3.78
   5  0.000  0.000  0.641-  24 2.28  26 2.28  28 2.28  29 2.28  20 3.15  21 3.15  22 3.15  23 3.15
                             9 3.35   2 3.71   3 3.71   4 3.71   1 3.71   7 3.76   6 3.76   7 3.76
   6  0.500  0.000  0.642-  28 2.28  29 2.28  25 2.28  27 2.28  20 3.15  21 3.15  22 3.15  23 3.15
                            10 3.37   2 3.71   3 3.71   4 3.71   1 3.71   5 3.76   5 3.76   8 3.76
   7  0.000  0.500  0.642-  24 2.28  26 2.28  30 2.28  31 2.28  20 3.15  21 3.15  22 3.15  23 3.15
                            11 3.37   2 3.71   3 3.71   4 3.71   1 3.71   5 3.76   5 3.76   8 3.76
   8  0.500  0.500  0.643-  25 2.28  27 2.28  30 2.28  31 2.28  20 3.15  21 3.15  22 3.15  23 3.15
                            12 3.40   2 3.71   3 3.71   4 3.71   1 3.71   7 3.76   6 3.76   6 3.76
   9  0.000  0.000  0.359-  32 2.28  33 2.28  36 2.28  38 2.28  20 3.15  21 3.15  22 3.15  23 3.15
                             5 3.35  13 3.71  14 3.71  15 3.71  16 3.71  10 3.76  11 3.76  11 3.76
  10  0.500  0.000  0.358-  32 2.28  33 2.28  37 2.28  39 2.28  20 3.15  21 3.15  22 3.15  23 3.15
                             6 3.37  13 3.71  14 3.71  15 3.71  16 3.71   9 3.76   9 3.76  12 3.76
  11  0.000  0.500  0.358-  36 2.28  38 2.28  34 2.28  35 2.28  20 3.15  21 3.15  22 3.15  23 3.15
                             7 3.37  13 3.71  14 3.71  15 3.71  16 3.71   9 3.76   9 3.76  12 3.76
  12  0.500  0.500  0.357-  34 2.28  35 2.28  37 2.28  39 2.28  20 3.15  21 3.15  22 3.15  23 3.15
                             8 3.40  13 3.71  14 3.71  15 3.71  16 3.71  10 3.76  11 3.76  10 3.76
  13  0.249  0.249  0.140-  32 2.28  36 2.28  34 2.29  37 2.29  40 3.13  18 3.14  17 3.14  19 3.15
                             1 3.33   9 3.71  10 3.71  11 3.71  12 3.71  14 3.74  15 3.74  15 3.78
  14  0.751  0.249  0.140-  33 2.28  36 2.28  35 2.29  37 2.29  40 3.13  18 3.14  17 3.14  19 3.15
                             2 3.33   9 3.71  10 3.71  11 3.71  12 3.71  13 3.74  16 3.74  16 3.78
  15  0.249  0.751  0.140-  32 2.28  38 2.28  34 2.29  39 2.29  40 3.13  18 3.14  17 3.14  19 3.15
                             3 3.33   9 3.71  10 3.71  11 3.71  12 3.71  13 3.74  16 3.74  16 3.78
  16  0.751  0.751  0.140-  33 2.28  38 2.28  35 2.29  39 2.29  40 3.13  18 3.14  17 3.14  19 3.15
                             4 3.33   9 3.71  10 3.71  11 3.71  12 3.71  14 3.74  15 3.74  14 3.78
  17  0.500  0.000  0.000-   1 3.14   2 3.14   3 3.14   4 3.14  13 3.14  14 3.14  15 3.14  16 3.14

  18  0.000  0.500  0.000-   1 3.14   2 3.14   3 3.14   4 3.14  13 3.14  14 3.14  15 3.14  16 3.14

  19  0.500  0.500  0.000-   1 3.15   2 3.15   3 3.15   4 3.15  13 3.15  14 3.15  15 3.15  16 3.15

  20  0.251  0.251  0.500-   5 3.15   9 3.15   7 3.15   6 3.15  10 3.15  11 3.15   8 3.15  12 3.15

  21  0.749  0.251  0.500-   5 3.15   9 3.15   7 3.15   6 3.15  10 3.15  11 3.15   8 3.15  12 3.15

  22  0.251  0.749  0.500-   5 3.15   9 3.15   7 3.15   6 3.15  10 3.15  11 3.15   8 3.15  12 3.15

  23  0.749  0.749  0.500-   5 3.15   9 3.15   7 3.15   6 3.15  10 3.15  11 3.15   8 3.15  12 3.15

  24  0.000  0.249  0.750-   1 2.28   2 2.28   5 2.28   7 2.28
  25  0.500  0.249  0.752-   8 2.28   6 2.28   1 2.29   2 2.29
  26  0.000  0.751  0.750-   3 2.28   4 2.28   5 2.28   7 2.28
  27  0.500  0.751  0.752-   8 2.28   6 2.28   3 2.29   4 2.29
  28  0.249  0.000  0.750-   1 2.28   3 2.28   5 2.28   6 2.28
  29  0.751  0.000  0.750-   2 2.28   4 2.28   5 2.28   6 2.28
  30  0.249  0.500  0.752-   8 2.28   7 2.28   1 2.29   3 2.29
  31  0.751  0.500  0.752-   8 2.28   7 2.28   2 2.29   4 2.29
  32  0.249  0.000  0.250-  13 2.28  15 2.28   9 2.28  10 2.28
  33  0.751  0.000  0.250-  14 2.28  16 2.28   9 2.28  10 2.28
  34  0.249  0.500  0.248-  12 2.28  11 2.28  13 2.29  15 2.29
  35  0.751  0.500  0.248-  12 2.28  11 2.28  14 2.29  16 2.29
  36  0.000  0.249  0.250-  13 2.28  14 2.28   9 2.28  11 2.28
  37  0.500  0.249  0.248-  12 2.28  10 2.28  13 2.29  14 2.29
  38  0.000  0.751  0.250-  15 2.28  16 2.28   9 2.28  11 2.28
  39  0.500  0.751  0.248-  12 2.28  10 2.28  15 2.29  16 2.29
  40  0.000  0.000  0.000-   1 3.13   2 3.13   3 3.13   4 3.13  13 3.13  14 3.13  15 3.13  16 3.13

 
  LATTYP: Found a simple tetragonal cell.
 ALAT       =     7.5265526867
 C/A-ratio  =     1.5781187256
  
  Lattice vectors:
  
 A1 = (   7.5265526867,   0.0000000000,   0.0000000000)
 A2 = (   0.0000000000,   7.5265526867,   0.0000000000)
 A3 = (   0.0000000000,   0.0000000000,  11.8777937341)


Analysis of symmetry for initial positions (statically):
=====================================================================
 Subroutine PRICEL returns:
 Original cell was already a primitive cell.
 

 Routine SETGRP: Setting up the symmetry group for a 
 simple tetragonal supercell.


 Subroutine GETGRP returns: Found 16 space group operations
 (whereof 16 operations were pure point group operations)
 out of a pool of 16 trial point group operations.


The static configuration has the point symmetry D_4h.


Analysis of symmetry for dynamics (positions and initial velocities):
=====================================================================
 Subroutine PRICEL returns:
 Original cell was already a primitive cell.
 

 Routine SETGRP: Setting up the symmetry group for a 
 simple tetragonal supercell.


 Subroutine GETGRP returns: Found 16 space group operations
 (whereof 16 operations were pure point group operations)
 out of a pool of 16 trial point group operations.


The dynamic configuration has the point symmetry D_4h.


 Subroutine INISYM returns: Found 16 space group operations
 (whereof 16 operations are pure point group operations),
 and found     1 'primitive' translations


----------------------------------------------------------------------------------------

                                     Primitive cell                                     

  volume of cell :     672.8651

  direct lattice vectors                    reciprocal lattice vectors
     7.526552687  0.000000000  0.000000000     0.132862951  0.000000000  0.000000000
     0.000000000  7.526552687  0.000000000     0.000000000  0.132862951  0.000000000
     0.000000000  0.000000000 11.877793734     0.000000000  0.000000000  0.084190719

  length of vectors
     7.526552687  7.526552687 11.877793734     0.132862951  0.132862951  0.084190719

  position of ions in fractional coordinates (direct lattice)
     0.248606181  0.248606181  0.859689980
     0.751393819  0.248606181  0.859689980
     0.248606181  0.751393819  0.859689980
     0.751393819  0.751393819  0.859689980
     0.000000000  0.000000000  0.641035078
     0.500000000  0.000000000  0.641998368
     0.000000000  0.500000000  0.641998368
     0.500000000  0.500000000  0.643035368
     0.000000000  0.000000000  0.358964922
     0.500000000  0.000000000  0.358001632
     0.000000000  0.500000000  0.358001632
     0.500000000  0.500000000  0.356964632
     0.248606181  0.248606181  0.140310020
     0.751393819  0.248606181  0.140310020
     0.248606181  0.751393819  0.140310020
     0.751393819  0.751393819  0.140310020
     0.500000000  0.000000000  0.000000000
     0.000000000  0.500000000  0.000000000
     0.500000000  0.500000000  0.000000000
     0.250554610  0.250554610  0.500000000
     0.749445390  0.250554610  0.500000000
     0.250554610  0.749445390  0.500000000
     0.749445390  0.749445390  0.500000000
     0.000000000  0.249348717  0.750142389
     0.500000000  0.249479615  0.751619714
     0.000000000  0.750651283  0.750142389
     0.500000000  0.750520385  0.751619714
     0.249348717  0.000000000  0.750142389
     0.750651283  0.000000000  0.750142389
     0.249479615  0.500000000  0.751619714
     0.750520385  0.500000000  0.751619714
     0.249348717  0.000000000  0.249857611
     0.750651283  0.000000000  0.249857611
     0.249479615  0.500000000  0.248380286
     0.750520385  0.500000000  0.248380286
     0.000000000  0.249348717  0.249857611
     0.500000000  0.249479615  0.248380286
     0.000000000  0.750651283  0.249857611
     0.500000000  0.750520385  0.248380286
     0.000000000  0.000000000  0.000000000

  ion indices of the primitive-cell ions
   primitive index   ion index
                 1           1
                 2           2
                 3           3
                 4           4
                 5           5
                 6           6
                 7           7
                 8           8
                 9           9
                10          10
                11          11
                12          12
                13          13
                14          14
                15          15
                16          16
                17          17
                18          18
                19          19
                20          20
                21          21
                22          22
                23          23
                24          24
                25          25
                26          26
                27          27
                28          28
                29          29
                30          30
                31          31
                32          32
                33          33
                34          34
                35          35
                36          36
                37          37
                38          38
                39          39
                40          40

----------------------------------------------------------------------------------------

 
 
 KPOINTS: K-Spacing Value to Generate K-Mesh: 0.03

Automatic generation of k-mesh.
 Grid dimensions read from file:
 generate k-points for:    4    4    3

 Generating k-lattice:

  Cartesian coordinates                     Fractional coordinates (reciprocal lattice)
     0.033215738  0.000000000  0.000000000     0.250000000  0.000000000  0.000000000
     0.000000000  0.033215738  0.000000000     0.000000000  0.250000000  0.000000000
     0.000000000  0.000000000  0.028063573     0.000000000  0.000000000  0.333333333

  Length of vectors
     0.033215738  0.033215738  0.028063573

  Shift w.r.t. Gamma in fractional coordinates (k-lattice)
     0.000000000  0.000000000  0.000000000

 
 Subroutine IBZKPT returns following result:
 ===========================================
 
 Found     12 irreducible k-points:
 
 Following reciprocal coordinates:
            Coordinates               Weight
  0.000000  0.000000  0.000000      1.000000
  0.250000  0.000000  0.000000      4.000000
  0.500000  0.000000  0.000000      2.000000
  0.250000  0.250000  0.000000      4.000000
  0.500000  0.250000  0.000000      4.000000
  0.500000  0.500000  0.000000      1.000000
  0.000000  0.000000  0.333333      2.000000
  0.250000  0.000000  0.333333      8.000000
  0.500000  0.000000  0.333333      4.000000
  0.250000  0.250000  0.333333      8.000000
  0.500000  0.250000  0.333333      8.000000
  0.500000  0.500000  0.333333      2.000000
 
 Following cartesian coordinates:
            Coordinates               Weight
  0.000000  0.000000  0.000000      1.000000
  0.031887  0.000000  0.000000      4.000000
  0.063774  0.000000  0.000000      2.000000
  0.031887  0.031887  0.000000      4.000000
  0.063774  0.031887  0.000000      4.000000
  0.063774  0.063774  0.000000      1.000000
  0.000000  0.000000  0.026941      2.000000
  0.031887  0.000000  0.026941      8.000000
  0.063774  0.000000  0.026941      4.000000
  0.031887  0.031887  0.026941      8.000000
  0.063774  0.031887  0.026941      8.000000
  0.063774  0.063774  0.026941      2.000000
 


--------------------------------------------------------------------------------------------------------




 Dimension of arrays:
   k-points           NKPTS =     12   k-points in BZ     NKDIM =     12   number of bands    NBANDS=    232
   number of dos      NEDOS =    301   number of ions     NIONS =     40
   non local maximal  LDIM  =      6   non local SUM 2l+1 LMDIM =     18
   total plane-waves  NPLWV = 282240
   max r-space proj   IRMAX =      1   max aug-charges    IRDMAX= 148483
   dimension x,y,z NGX =    56 NGY =   56 NGZ =   90
   dimension x,y,z NGXF=   112 NGYF=  112 NGZF=  180
   support grid    NGXF=   224 NGYF=  224 NGZF=  360
   ions per type =              16   7  16   1
   NGX,Y,Z   is equivalent  to a cutoff of  12.37, 12.37, 12.60 a.u.
   NGXF,Y,Z  is equivalent  to a cutoff of  24.74, 24.74, 25.19 a.u.

 SYSTEM =  unknown system                          
 POSCAR =  generated by phonopy                    

 Startparameter for this run:
   NWRITE =      2    write-flag & timer
   PREC   = accura    normal or accurate (medium, high low for compatibility)
   ISTART =      0    job   : 0-new  1-cont  2-samecut
   ICHARG =      2    charge: 1-file 2-atom 10-const
   ISPIN  =      1    spin polarized calculation?
   LNONCOLLINEAR =      F non collinear calculations
   LSORBIT =      F    spin-orbit coupling
   INIWAV =      1    electr: 0-lowe 1-rand  2-diag
   LASPH  =      F    aspherical Exc in radial PAW
 Electronic Relaxation 1
   ENCUT  =  520.0 eV  38.22 Ry    6.18 a.u.  13.99 13.99 22.08*2*pi/ulx,y,z
   ENINI  =  520.0     initial cutoff
   ENAUG  =  605.4 eV  augmentation charge cutoff
   NELM   =     60;   NELMIN=  5; NELMDL= -5     # of ELM steps 
   EDIFF  = 0.1E-07   stopping-criterion for ELM
   LREAL  =      F    real-space projection
   NLSPLINE    = F    spline interpolate recip. space projectors
   LCOMPAT=      F    compatible to vasp.4.4
   GGA_COMPAT  = T    GGA compatible to vasp.4.4-vasp.4.6
   LMAXPAW     = -100 max onsite density
   LMAXMIX     =    2 max onsite mixed and CHGCAR
   VOSKOWN=      0    Vosko Wilk Nusair interpolation
   ROPT   =    0.00000   0.00000   0.00000   0.00000
 Ionic relaxation
   EDIFFG = -.1E-04   stopping-criterion for IOM
   NSW    =    100    number of steps for IOM
   NBLOCK =      1;   KBLOCK =    100    inner block; outer block 
   IBRION =      2    ionic relax: 0-MD 1-quasi-New 2-CG
   NFREE  =      1    steps in history (QN), initial steepest desc. (CG)
   ISIF   =      2    stress and relaxation
   IWAVPR =     11    prediction:  0-non 1-charg 2-wave 3-comb
   ISYM   =      2    0-nonsym 1-usesym 2-fastsym
   LCORR  =      T    Harris-Foulkes like correction to forces

   POTIM  = 0.5000    time-step for ionic-motion
   TEIN   =    0.0    initial temperature
   TEBEG  =    0.0;   TEEND  =   0.0 temperature during run
   SMASS  =  -3.00    Nose mass-parameter (am)
   estimated Nose-frequenzy (Omega)   =  0.10E-29 period in steps = 0.13E+47 mass=  -0.129E-26a.u.
   SCALEE = 1.0000    scale energy and forces
   NPACO  =    256;   APACO  = 10.0  distance and # of slots for P.C.
   PSTRESS=    0.0 pullay stress

  Mass of Ions in am
   POMASS = 208.98 78.96 16.00 32.07
  Ionic Valenz
   ZVAL   =  15.00  6.00  6.00  6.00
  Atomic Wigner-Seitz radii
   RWIGS  =  -1.00 -1.00 -1.00 -1.00
  virtual crystal weights 
   VCA    =   1.00  1.00  1.00  1.00
   NELECT =     384.0000    total number of electrons
   NUPDOWN=      -1.0000    fix difference up-down

 DOS related values:
   EMIN   =  10.00;   EMAX   =-10.00  energy-range for DOS
   EFERMI =   0.00;   METHOD = LEGACY      
   ISMEAR =     0;   SIGMA  =   0.05  broadening in eV -4-tet -1-fermi 0-gaus

 Electronic relaxation 2 (details)
   IALGO  =     38    algorithm
   LDIAG  =      T    sub-space diagonalisation (order eigenvalues)
   LSUBROT=      F    optimize rotation matrix (better conditioning)
   TURBO    =      0    0=normal 1=particle mesh
   IRESTART =      0    0=no restart 2=restart with 2 vectors
   NREBOOT  =      0    no. of reboots
   NMIN     =      0    reboot dimension
   EREF     =   0.00    reference energy to select bands
   IMIX   =      4    mixing-type and parameters
     AMIX     =   0.40;   BMIX     =  1.00
     AMIX_MAG =   1.60;   BMIX_MAG =  1.00
     AMIN     =   0.10
     WC   =   100.;   INIMIX=   1;  MIXPRE=   1;  MAXMIX= -45

 Intra band minimization:
   WEIMIN = 0.0010     energy-eigenvalue tresh-hold
   EBREAK =  0.11E-10  absolut break condition
   DEPER  =   0.30     relativ break condition  

   TIME   =   0.40     timestep for ELM

  volume/ion in A,a.u.               =      16.82       113.52
  Fermi-wavevector in a.u.,A,eV,Ry     =   1.357925  2.566107 25.088617  1.843961
  Thomas-Fermi vector in A             =   2.484802
 
 Write flags
   LWAVE        =      F    write WAVECAR
   LDOWNSAMPLE  =      F    k-point downsampling of WAVECAR
   LCHARG       =      F    write CHGCAR
   LVTOT        =      F    write LOCPOT, total local potential
   LVHAR        =      F    write LOCPOT, Hartree potential only
   WRT_POTENTIAL= false  ! write potential to hdf5 file
   LELF         =      F    write electronic localiz. function (ELF)
   LORBIT       =      0    0 simple, 1 ext, 2 COOP (PROOUT), +10 PAW based schemes


 Dipole corrections
   LMONO      =      F    monopole corrections only (constant potential shift)
   LDIPOL     =      F    correct potential (dipole corrections)
   IDIPOL     =      0    1-x, 2-y, 3-z, 4-all directions 
   EPSILON    =  1.0000000 bulk dielectric constant
   LVACPOTAV  =      F  vacuum potentials using an averaging scheme for the charge density
   VACPOTFLAT =  0.1000000 required flatness to determine vacuum potential
 Exchange correlation treatment:
   GGA     = PE    functional components
   XC_C    = 1    coefficients multiplying the functional components
   LIBXC   =     F    Libxc                    
   VOSKOWN =     0    Vosko Wilk Nusair interpolation
   LHFCALC =     F    Hartree Fock is set to
   LHFONE  =     F    Hartree Fock one center treatment
   AEXX    =    0.0000 exact exchange contribution

 Parameters of functionals:
   PE:
     No parameter
 
 Van der Waals corrections
   IVDW    =     0    specifies the selected vdW correction

 Linear response parameters
   LEPSILON=     F    determine dielectric tensor
   LRPA    =     F    only Hartree local field effects (RPA)
   LNABLA  =     F    use nabla operator in PAW spheres
   LVEL    =     F    velocity operator in full k-point grid
   CSHIFT  =0.1000    complex shift for real part using Kramers Kronig
   OMEGAMAX=  -1.0    maximum frequency
   DEG_THRESHOLD= 0.2000000E-02 threshold for treating states as degnerate
   RTIME   =   -0.100 relaxation time in fs
  (WPLASMAI=    0.000 imaginary part of plasma frequency in eV, 0.658/RTIME)
   DFIELD  = 0.0000000 0.0000000 0.0000000 field for delta impulse in time
 
  Optional k-point grid parameters
   LKPOINTS_OPT  =     F    use optional k-point grid
   KPOINTS_OPT_MODE=     1    mode for optional k-point grid
 
 Orbital magnetization related:
   ORBITALMAG=     F  switch on orbital magnetization
   LCHIMAG   =     F  perturbation theory with respect to B field
   DQ        =  0.001000  dq finite difference perturbation B field
   LLRAUG    =     F  two centre corrections for induced B field
   LBONE     =     F  B-component reconstruction in AE one-centre
   LVGVCALC  =     T  calculate vGv susceptibility
   LVGVAPPL  =     F  apply vGv susceptibility instead of pGv for G=0

 Random number generation:
   RANDOM_GENERATOR = DEFAULT
   PCG_SEED         = not used


--------------------------------------------------------------------------------------------------------


 conjugate gradient relaxation of ions
 charge density and potential will be updated during run
 non-spin polarized calculation
 Variant of blocked Davidson
 Davidson routine will perform the subspace rotation
 perform sub-space diagonalisation
    after iterative eigenvector-optimisation
 modified Broyden-mixing scheme, WC =      100.0
 initial mixing is a Kerker type mixing with AMIX =  0.4000 and BMIX =      1.0000
 Hartree-type preconditioning will be used
 using additional bands           40
 reciprocal scheme for non local part
 use partial core corrections
 calculate Harris-corrections to forces 
   (improved forces if not selfconsistent)
 use gradient corrections 
 use of overlap-Matrix (Vanderbilt PP)
 Gauss-broadening in eV      SIGMA  =   0.05


--------------------------------------------------------------------------------------------------------


  energy-cutoff  :      520.00
  volume of cell :      672.87
      direct lattice vectors                 reciprocal lattice vectors
     7.526552687  0.000000000  0.000000000     0.132862951  0.000000000  0.000000000
     0.000000000  7.526552687  0.000000000     0.000000000  0.132862951  0.000000000
     0.000000000  0.000000000 11.877793734     0.000000000  0.000000000  0.084190719

  length of vectors
     7.526552687  7.526552687 11.877793734     0.132862951  0.132862951  0.084190719


 
 k-points in units of 2pi/SCALE and weight: K-Spacing Value to Generate K-Mesh: 0.03
   0.00000000  0.00000000  0.00000000       0.021
   0.03188711  0.00000000  0.00000000       0.083
   0.06377422  0.00000000  0.00000000       0.042
   0.03188711  0.03188711  0.00000000       0.083
   0.06377422  0.03188711  0.00000000       0.083
   0.06377422  0.06377422  0.00000000       0.021
   0.00000000  0.00000000  0.02694103       0.042
   0.03188711  0.00000000  0.02694103       0.167
   0.06377422  0.00000000  0.02694103       0.083
   0.03188711  0.03188711  0.02694103       0.167
   0.06377422  0.03188711  0.02694103       0.167
   0.06377422  0.06377422  0.02694103       0.042
 
 k-points in reciprocal lattice and weights: K-Spacing Value to Generate K-Mesh: 0.03
   0.00000000  0.00000000  0.00000000       0.021
   0.25000000  0.00000000  0.00000000       0.083
   0.50000000  0.00000000  0.00000000       0.042
   0.25000000  0.25000000  0.00000000       0.083
   0.50000000  0.25000000  0.00000000       0.083
   0.50000000  0.50000000  0.00000000       0.021
   0.00000000  0.00000000  0.33333333       0.042
   0.25000000  0.00000000  0.33333333       0.167
   0.50000000  0.00000000  0.33333333       0.083
   0.25000000  0.25000000  0.33333333       0.167
   0.50000000  0.25000000  0.33333333       0.167
   0.50000000  0.50000000  0.33333333       0.042
 
 position of ions in fractional coordinates (direct lattice) 
   0.24860618  0.24860618  0.85968998
   0.75139382  0.24860618  0.85968998
   0.24860618  0.75139382  0.85968998
   0.75139382  0.75139382  0.85968998
   0.00000000  0.00000000  0.64103508
   0.50000000  0.00000000  0.64199837
   0.00000000  0.50000000  0.64199837
   0.50000000  0.50000000  0.64303537
   0.00000000  0.00000000  0.35896492
   0.50000000  0.00000000  0.35800163
   0.00000000  0.50000000  0.35800163
   0.50000000  0.50000000  0.35696463
   0.24860618  0.24860618  0.14031002
   0.75139382  0.24860618  0.14031002
   0.24860618  0.75139382  0.14031002
   0.75139382  0.75139382  0.14031002
   0.50000000  0.00000000  0.00000000
   0.00000000  0.50000000  0.00000000
   0.50000000  0.50000000  0.00000000
   0.25055461  0.25055461  0.50000000
   0.74944539  0.25055461  0.50000000
   0.25055461  0.74944539  0.50000000
   0.74944539  0.74944539  0.50000000
   0.00000000  0.24934872  0.75014239
   0.50000000  0.24947961  0.75161971
   0.00000000  0.75065128  0.75014239
   0.50000000  0.75052039  0.75161971
   0.24934872  0.00000000  0.75014239
   0.75065128  0.00000000  0.75014239
   0.24947961  0.50000000  0.75161971
   0.75052039  0.50000000  0.75161971
   0.24934872  0.00000000  0.24985761
   0.75065128  0.00000000  0.24985761
   0.24947961  0.50000000  0.24838029
   0.75052039  0.50000000  0.24838029
   0.00000000  0.24934872  0.24985761
   0.50000000  0.24947961  0.24838029
   0.00000000  0.75065128  0.24985761
   0.50000000  0.75052039  0.24838029
   0.00000000  0.00000000  0.00000000
 
 position of ions in cartesian coordinates  (Angst):
   1.87114752  1.87114752 10.21122025
   5.65540517  1.87114752 10.21122025
   1.87114752  5.65540517 10.21122025
   5.65540517  5.65540517 10.21122025
   0.00000000  0.00000000  7.61408244
   3.76327634  0.00000000  7.62552419
   0.00000000  3.76327634  7.62552419
   3.76327634  3.76327634  7.63784147
   0.00000000  0.00000000  4.26371130
   3.76327634  0.00000000  4.25226955
   0.00000000  3.76327634  4.25226955
   3.76327634  3.76327634  4.23995227
   1.87114752  1.87114752  1.66657348
   5.65540517  1.87114752  1.66657348
   1.87114752  5.65540517  1.66657348
   5.65540517  5.65540517  1.66657348
   3.76327634  0.00000000  0.00000000
   0.00000000  3.76327634  0.00000000
   3.76327634  3.76327634  0.00000000
   1.88581247  1.88581247  5.93889687
   5.64074022  1.88581247  5.93889687
   1.88581247  5.64074022  5.93889687
   5.64074022  5.64074022  5.93889687
   0.00000000  1.87673626  8.91003657
   3.76327634  1.87772147  8.92758393
   0.00000000  5.64981643  8.91003657
   3.76327634  5.64883122  8.92758393
   1.87673626  0.00000000  8.91003657
   5.64981643  0.00000000  8.91003657
   1.87772147  3.76327634  8.92758393
   5.64883122  3.76327634  8.92758393
   1.87673626  0.00000000  2.96775717
   5.64981643  0.00000000  2.96775717
   1.87772147  3.76327634  2.95020981
   5.64883122  3.76327634  2.95020981
   0.00000000  1.87673626  2.96775717
   3.76327634  1.87772147  2.95020981
   0.00000000  5.64981643  2.96775717
   3.76327634  5.64883122  2.95020981
   0.00000000  0.00000000  0.00000000
 


--------------------------------------------------------------------------------------------------------


 k-point     1 :   0.0000 0.0000 0.0000  plane waves:   18133
 k-point     2 :   0.2500 0.0000 0.0000  plane waves:   18090
 k-point     3 :   0.5000 0.0000 0.0000  plane waves:   18088
 k-point     4 :   0.2500 0.2500 0.0000  plane waves:   18106
 k-point     5 :   0.5000 0.2500 0.0000  plane waves:   18106
 k-point     6 :   0.5000 0.5000 0.0000  plane waves:   18184
 k-point     7 :   0.0000 0.0000 0.3333  plane waves:   18044
 k-point     8 :   0.2500 0.0000 0.3333  plane waves:   18092
 k-point     9 :   0.5000 0.0000 0.3333  plane waves:   18116
 k-point    10 :   0.2500 0.2500 0.3333  plane waves:   18143
 k-point    11 :   0.5000 0.2500 0.3333  plane waves:   18136
 k-point    12 :   0.5000 0.5000 0.3333  plane waves:   18108

 maximum and minimum number of plane-waves per node :      2036     1982

 maximum number of plane-waves:     18184
 maximum index in each direction: 
   IXMAX=   13   IYMAX=   13   IZMAX=   22
   IXMIN=  -14   IYMIN=  -14   IZMIN=  -22


 parallel 3D FFT for wavefunctions:
    minimum data exchange during FFTs selected (reduces bandwidth)
 parallel 3D FFT for charge:
    minimum data exchange during FFTs selected (reduces bandwidth)


 total amount of memory used by VASP MPI-rank0    87007. kBytes
=======================================================================

   base      :      30000. kBytes
   nonl-proj :      15224. kBytes
   fftplans  :      11226. kBytes
   grid      :       7273. kBytes
   one-center:         77. kBytes
   wavefun   :      23207. kBytes
 
     INWAV:  cpu time      0.0000: real time      0.0000
 Broyden mixing: mesh for mixing (old mesh)
   NGX = 27   NGY = 27   NGZ = 45
  (NGX  =112   NGY  =112   NGZ  =180)
  gives a total of  32805 points

 initial charge density was supplied:
 charge density of overlapping atoms calculated
 number of electron     384.0000000 magnetization 
 keeping initial charge density in first step


--------------------------------------------------------------------------------------------------------


 Maximum index for augmentation-charges         6478 (set IRDMAX)


--------------------------------------------------------------------------------------------------------


 First call to EWALD:  gamma=   0.202
 Maximum number of real-space cells 3x 3x 2
 Maximum number of reciprocal cells 2x 2x 4

    FEWALD:  cpu time      0.0017: real time      0.0017


--------------------------------------- Ionic step        1  -------------------------------------------




--------------------------------------- Iteration      1(   1)  ---------------------------------------


    POTLOK:  cpu time      0.1269: real time      0.1269
    SETDIJ:  cpu time      0.4584: real time      0.4586
     EDDAV:  cpu time     26.7792: real time     26.7850
       DOS:  cpu time      0.0036: real time      0.0037
    --------------------------------------------
      LOOP:  cpu time     27.3680: real time     27.3742

 eigenvalue-minimisations  :  5568
 total energy-change (2. order) : 0.5984436E+04  (-0.1733933E+05)
 number of electron     384.0000000 magnetization 
 augmentation part      384.0000000 magnetization 

 Free energy of the ion-electron system (eV)
  ---------------------------------------------------
  alpha Z        PSCENC =      1501.27596003
  Ewald energy   TEWEN  =    -31159.69499418
  -Hartree energ DENC   =    -10367.89982018
  -exchange      EXHF   =         0.00000000
  -V(xc)+E(xc)   XCENC  =      1246.33883959
  PAW double counting   =     34040.00696010   -33495.80632930
  entropy T*S    EENTRO =        -0.00159216
  eigenvalues    EBANDS =      3878.56520907
  atomic energy  EATOM  =     40341.65184589
  Solvation  Ediel_sol  =         0.00000000
  ---------------------------------------------------
  free energy    TOTEN  =      5984.43607886 eV

  energy without entropy =     5984.43767102  energy(sigma->0) =     5984.43687494


--------------------------------------------------------------------------------------------------------




--------------------------------------- Iteration      1(   2)  ---------------------------------------


     EDDAV:  cpu time     26.7973: real time     26.8048
       DOS:  cpu time      0.0016: real time      0.0061
    --------------------------------------------
      LOOP:  cpu time     26.7989: real time     26.8109

 eigenvalue-minimisations  :  5568
 total energy-change (2. order) :-0.4898777E+04  (-0.4753858E+04)
 number of electron     384.0000000 magnetization 
 augmentation part      384.0000000 magnetization 

 Free energy of the ion-electron system (eV)
  ---------------------------------------------------
  alpha Z        PSCENC =      1501.27596003
  Ewald energy   TEWEN  =    -31159.69499418
  -Hartree energ DENC   =    -10367.89982018
  -exchange      EXHF   =         0.00000000
  -V(xc)+E(xc)   XCENC  =      1246.33883959
  PAW double counting   =     34040.00696010   -33495.80632930
  entropy T*S    EENTRO =        -0.00631930
  eigenvalues    EBANDS =     -1020.20743382
  atomic energy  EATOM  =     40341.65184589
  Solvation  Ediel_sol  =         0.00000000
  ---------------------------------------------------
  free energy    TOTEN  =      1085.65870883 eV

  energy without entropy =     1085.66502814  energy(sigma->0) =     1085.66186849


--------------------------------------------------------------------------------------------------------




--------------------------------------- Iteration      1(   3)  ---------------------------------------


     EDDAV:  cpu time     28.8875: real time     28.8961
       DOS:  cpu time      0.0016: real time      0.0055
    --------------------------------------------
      LOOP:  cpu time     28.8892: real time     28.9016

 eigenvalue-minimisations  :  6192
 total energy-change (2. order) :-0.1177431E+04  (-0.1094456E+04)
 number of electron     384.0000000 magnetization 
 augmentation part      384.0000000 magnetization 

 Free energy of the ion-electron system (eV)
  ---------------------------------------------------
  alpha Z        PSCENC =      1501.27596003
  Ewald energy   TEWEN  =    -31159.69499418
  -Hartree energ DENC   =    -10367.89982018
  -exchange      EXHF   =         0.00000000
  -V(xc)+E(xc)   XCENC  =      1246.33883959
  PAW double counting   =     34040.00696010   -33495.80632930
  entropy T*S    EENTRO =        -0.00132993
  eigenvalues    EBANDS =     -2197.64374668
  atomic energy  EATOM  =     40341.65184589
  Solvation  Ediel_sol  =         0.00000000
  ---------------------------------------------------
  free energy    TOTEN  =       -91.77261465 eV

  energy without entropy =      -91.77128472  energy(sigma->0) =      -91.77194969


--------------------------------------------------------------------------------------------------------




--------------------------------------- Iteration      1(   4)  ---------------------------------------


     EDDAV:  cpu time     30.8256: real time     30.8337
       DOS:  cpu time      0.0020: real time      0.0021
    --------------------------------------------
      LOOP:  cpu time     30.8276: real time     30.8358

 eigenvalue-minimisations  :  6760
 total energy-change (2. order) :-0.1407689E+03  (-0.1364876E+03)
 number of electron     384.0000000 magnetization 
 augmentation part      384.0000000 magnetization 

 Free energy of the ion-electron system (eV)
  ---------------------------------------------------
  alpha Z        PSCENC =      1501.27596003
  Ewald energy   TEWEN  =    -31159.69499418
  -Hartree energ DENC   =    -10367.89982018
  -exchange      EXHF   =         0.00000000
  -V(xc)+E(xc)   XCENC  =      1246.33883959
  PAW double counting   =     34040.00696010   -33495.80632930
  entropy T*S    EENTRO =        -0.00000000
  eigenvalues    EBANDS =     -2338.41394906
  atomic energy  EATOM  =     40341.65184589
  Solvation  Ediel_sol  =         0.00000000
  ---------------------------------------------------
  free energy    TOTEN  =      -232.54148711 eV

  energy without entropy =     -232.54148711  energy(sigma->0) =     -232.54148711


--------------------------------------------------------------------------------------------------------




--------------------------------------- Iteration      1(   5)  ---------------------------------------


     EDDAV:  cpu time     30.2269: real time     30.2286
       DOS:  cpu time      0.0012: real time      0.0013
    CHARGE:  cpu time      1.1622: real time      1.1623
    MIXING:  cpu time      0.0052: real time      0.0052
    --------------------------------------------
      LOOP:  cpu time     31.3956: real time     31.3975

 eigenvalue-minimisations  :  6584
 total energy-change (2. order) :-0.6092050E+01  (-0.6006269E+01)
 number of electron     384.0000008 magnetization 
 augmentation part       98.3824451 magnetization 

 Broyden mixing:
  rms(total) = 0.34223E+01    rms(broyden)= 0.34214E+01
  rms(prec ) = 0.43856E+01
  weight for this iteration     100.00

 Free energy of the ion-electron system (eV)
  ---------------------------------------------------
  alpha Z        PSCENC =      1501.27596003
  Ewald energy   TEWEN  =    -31159.69499418
  -Hartree energ DENC   =    -10367.89982018
  -exchange      EXHF   =         0.00000000
  -V(xc)+E(xc)   XCENC  =      1246.33883959
  PAW double counting   =     34040.00696010   -33495.80632930
  entropy T*S    EENTRO =        -0.00000000
  eigenvalues    EBANDS =     -2344.50599860
  atomic energy  EATOM  =     40341.65184589
  Solvation  Ediel_sol  =         0.00000000
  ---------------------------------------------------
  free energy    TOTEN  =      -238.63353664 eV

  energy without entropy =     -238.63353664  energy(sigma->0) =     -238.63353664


--------------------------------------------------------------------------------------------------------




--------------------------------------- Iteration      1(   6)  ---------------------------------------


    POTLOK:  cpu time      0.1233: real time      0.1234
    SETDIJ:  cpu time      0.4459: real time      0.4459
     EDDAV:  cpu time     34.5989: real time     34.6169
       DOS:  cpu time      0.0016: real time      0.0018
    CHARGE:  cpu time      1.1591: real time      1.1599
    MIXING:  cpu time      0.0057: real time      0.0057
    --------------------------------------------
      LOOP:  cpu time     36.3346: real time     36.3535

 eigenvalue-minimisations  :  7864
 total energy-change (2. order) : 0.3369731E+02  (-0.1329323E+02)
 number of electron     384.0000007 magnetization 
 augmentation part       95.4025016 magnetization 

 Broyden mixing:
  rms(total) = 0.12199E+01    rms(broyden)= 0.12178E+01
  rms(prec ) = 0.14587E+01
  weight for this iteration     100.00

 eigenvalues of (default mixing * dielectric matrix)
  average eigenvalue GAMMA=   0.8097
  0.8097

 Free energy of the ion-electron system (eV)
  ---------------------------------------------------
  alpha Z        PSCENC =      1501.27596003
  Ewald energy   TEWEN  =    -31159.69499418
  -Hartree energ DENC   =    -10617.33616797
  -exchange      EXHF   =         0.00000000
  -V(xc)+E(xc)   XCENC  =      1265.64764074
  PAW double counting   =     35044.17427059   -34463.28342462
  entropy T*S    EENTRO =        -0.00000000
  eigenvalues    EBANDS =     -2117.37135667
  atomic energy  EATOM  =     40341.65184589
  Solvation  Ediel_sol  =         0.00000000
  ---------------------------------------------------
  free energy    TOTEN  =      -204.93622618 eV

  energy without entropy =     -204.93622618  energy(sigma->0) =     -204.93622618


--------------------------------------------------------------------------------------------------------




--------------------------------------- Iteration      1(   7)  ---------------------------------------


    POTLOK:  cpu time      0.1238: real time      0.1239
    SETDIJ:  cpu time      0.4303: real time      0.4311
     EDDAV:  cpu time     28.6894: real time     28.6930
       DOS:  cpu time      0.0015: real time      0.0016
    CHARGE:  cpu time      1.1597: real time      1.1599
    MIXING:  cpu time      0.0054: real time      0.0054
    --------------------------------------------
      LOOP:  cpu time     30.4101: real time     30.4149

 eigenvalue-minimisations  :  6120
 total energy-change (2. order) :-0.7080570E+00  (-0.3037497E+01)
 number of electron     384.0000007 magnetization 
 augmentation part       94.9822377 magnetization 

 Broyden mixing:
  rms(total) = 0.83731E+00    rms(broyden)= 0.83729E+00
  rms(prec ) = 0.91743E+00
  weight for this iteration     100.00

 eigenvalues of (default mixing * dielectric matrix)
  average eigenvalue GAMMA=   1.1226
  1.1226  1.1226

 Free energy of the ion-electron system (eV)
  ---------------------------------------------------
  alpha Z        PSCENC =      1501.27596003
  Ewald energy   TEWEN  =    -31159.69499418
  -Hartree energ DENC   =    -10545.47719608
  -exchange      EXHF   =         0.00000000
  -V(xc)+E(xc)   XCENC  =      1263.38735325
  PAW double counting   =     36060.24182051   -35473.39708628
  entropy T*S    EENTRO =        -0.00000000
  eigenvalues    EBANDS =     -2193.63198638
  atomic energy  EATOM  =     40341.65184589
  Solvation  Ediel_sol  =         0.00000000
  ---------------------------------------------------
  free energy    TOTEN  =      -205.64428322 eV

  energy without entropy =     -205.64428322  energy(sigma->0) =     -205.64428322


--------------------------------------------------------------------------------------------------------




--------------------------------------- Iteration      1(   8)  ---------------------------------------


    POTLOK:  cpu time      0.1237: real time      0.1237
    SETDIJ:  cpu time      0.4643: real time      0.4643
     EDDAV:  cpu time     35.3865: real time     35.4046
       DOS:  cpu time      0.0019: real time      0.0020
    CHARGE:  cpu time      1.1577: real time      1.1595
    MIXING:  cpu time      0.0060: real time      0.0060
    --------------------------------------------
      LOOP:  cpu time     37.1401: real time     37.1602

 eigenvalue-minimisations  :  8112
 total energy-change (2. order) :-0.8772499E-01  (-0.5643154E+00)
 number of electron     384.0000007 magnetization 
 augmentation part       95.3070047 magnetization 

 Broyden mixing:
  rms(total) = 0.38380E+00    rms(broyden)= 0.38366E+00
  rms(prec ) = 0.44851E+00
  weight for this iteration     100.00

 eigenvalues of (default mixing * dielectric matrix)
  average eigenvalue GAMMA=   1.3580
  2.3719  0.8510  0.8510

 Free energy of the ion-electron system (eV)
  ---------------------------------------------------
  alpha Z        PSCENC =      1501.27596003
  Ewald energy   TEWEN  =    -31159.69499418
  -Hartree energ DENC   =    -10528.17948578
  -exchange      EXHF   =         0.00000000
  -V(xc)+E(xc)   XCENC  =      1262.39555611
  PAW double counting   =     36623.66424478   -36033.64897397
  entropy T*S    EENTRO =        -0.00000000
  eigenvalues    EBANDS =     -2213.19616109
  atomic energy  EATOM  =     40341.65184589
  Solvation  Ediel_sol  =         0.00000000
  ---------------------------------------------------
  free energy    TOTEN  =      -205.73200821 eV

  energy without entropy =     -205.73200821  energy(sigma->0) =     -205.73200821


--------------------------------------------------------------------------------------------------------




--------------------------------------- Iteration      1(   9)  ---------------------------------------


    POTLOK:  cpu time      0.1238: real time      0.1238
    SETDIJ:  cpu time      0.4344: real time      0.4345
     EDDAV:  cpu time     33.1031: real time     33.1245
       DOS:  cpu time      0.0014: real time      0.0016
    CHARGE:  cpu time      1.1609: real time      1.1617
    MIXING:  cpu time      0.0059: real time      0.0059
    --------------------------------------------
      LOOP:  cpu time     34.8295: real time     34.8520

 eigenvalue-minimisations  :  7432
 total energy-change (2. order) : 0.9688354E-01  (-0.6200013E-01)
 number of electron     384.0000007 magnetization 
 augmentation part       95.0604536 magnetization 

 Broyden mixing:
  rms(total) = 0.12803E+00    rms(broyden)= 0.12800E+00
  rms(prec ) = 0.14804E+00
  weight for this iteration     100.00

 eigenvalues of (default mixing * dielectric matrix)
  average eigenvalue GAMMA=   1.3524
  2.5059  1.1941  0.8548  0.8548

 Free energy of the ion-electron system (eV)
  ---------------------------------------------------
  alpha Z        PSCENC =      1501.27596003
  Ewald energy   TEWEN  =    -31159.69499418
  -Hartree energ DENC   =    -10558.98602475
  -exchange      EXHF   =         0.00000000
  -V(xc)+E(xc)   XCENC  =      1264.39956392
  PAW double counting   =     37193.46417219   -36599.43176013
  entropy T*S    EENTRO =        -0.00000000
  eigenvalues    EBANDS =     -2188.31388765
  atomic energy  EATOM  =     40341.65184589
  Solvation  Ediel_sol  =         0.00000000
  ---------------------------------------------------
  free energy    TOTEN  =      -205.63512467 eV

  energy without entropy =     -205.63512467  energy(sigma->0) =     -205.63512467


--------------------------------------------------------------------------------------------------------




--------------------------------------- Iteration      1(  10)  ---------------------------------------


    POTLOK:  cpu time      0.1237: real time      0.1238
    SETDIJ:  cpu time      0.4808: real time      0.4812
     EDDAV:  cpu time     31.5673: real time     31.5669
       DOS:  cpu time      0.0015: real time      0.0015
    CHARGE:  cpu time      1.1586: real time      1.1587
    MIXING:  cpu time      0.0079: real time      0.0079
    --------------------------------------------
      LOOP:  cpu time     33.3399: real time     33.3402

 eigenvalue-minimisations  :  6984
 total energy-change (2. order) : 0.1383413E-02  (-0.1342372E-01)
 number of electron     384.0000007 magnetization 
 augmentation part       95.0524946 magnetization 

 Broyden mixing:
  rms(total) = 0.33238E-01    rms(broyden)= 0.33222E-01
  rms(prec ) = 0.35793E-01
  weight for this iteration     100.00

 eigenvalues of (default mixing * dielectric matrix)
  average eigenvalue GAMMA=   1.2120
  2.4614  1.1427  0.8621  0.8621  0.7319

 Free energy of the ion-electron system (eV)
  ---------------------------------------------------
  alpha Z        PSCENC =      1501.27596003
  Ewald energy   TEWEN  =    -31159.69499418
  -Hartree energ DENC   =    -10552.61270239
  -exchange      EXHF   =         0.00000000
  -V(xc)+E(xc)   XCENC  =      1264.16633113
  PAW double counting   =     37374.82433644   -36781.16683999
  entropy T*S    EENTRO =        -0.00000000
  eigenvalues    EBANDS =     -2194.07767819
  atomic energy  EATOM  =     40341.65184589
  Solvation  Ediel_sol  =         0.00000000
  ---------------------------------------------------
  free energy    TOTEN  =      -205.63374126 eV

  energy without entropy =     -205.63374126  energy(sigma->0) =     -205.63374126


--------------------------------------------------------------------------------------------------------




--------------------------------------- Iteration      1(  11)  ---------------------------------------


    POTLOK:  cpu time      0.1240: real time      0.1241
    SETDIJ:  cpu time      0.5377: real time      0.5381
     EDDAV:  cpu time     32.3329: real time     32.3465
       DOS:  cpu time      0.0018: real time      0.0019
    CHARGE:  cpu time      1.1588: real time      1.1604
    MIXING:  cpu time      0.0058: real time      0.0058
    --------------------------------------------
      LOOP:  cpu time     34.1609: real time     34.1767

 eigenvalue-minimisations  :  7200
 total energy-change (2. order) :-0.1290200E-02  (-0.1598101E-02)
 number of electron     384.0000007 magnetization 
 augmentation part       95.0619842 magnetization 

 Broyden mixing:
  rms(total) = 0.29173E-01    rms(broyden)= 0.29171E-01
  rms(prec ) = 0.31843E-01
  weight for this iteration     100.00

 eigenvalues of (default mixing * dielectric matrix)
  average eigenvalue GAMMA=   1.4197
  2.0928  2.0928  0.8429  0.8429  1.5175  1.1295

 Free energy of the ion-electron system (eV)
  ---------------------------------------------------
  alpha Z        PSCENC =      1501.27596003
  Ewald energy   TEWEN  =    -31159.69499418
  -Hartree energ DENC   =    -10552.37049527
  -exchange      EXHF   =         0.00000000
  -V(xc)+E(xc)   XCENC  =      1264.17263570
  PAW double counting   =     37352.84436564   -36759.49894867
  entropy T*S    EENTRO =        -0.00000000
  eigenvalues    EBANDS =     -2194.01540061
  atomic energy  EATOM  =     40341.65184589
  Solvation  Ediel_sol  =         0.00000000
  ---------------------------------------------------
  free energy    TOTEN  =      -205.63503146 eV

  energy without entropy =     -205.63503146  energy(sigma->0) =     -205.63503146


--------------------------------------------------------------------------------------------------------




--------------------------------------- Iteration      1(  12)  ---------------------------------------


    POTLOK:  cpu time      0.1242: real time      0.1243
    SETDIJ:  cpu time      0.4755: real time      0.4760
     EDDAV:  cpu time     33.7546: real time     33.7609
       DOS:  cpu time      0.0012: real time      0.0013
    CHARGE:  cpu time      1.1595: real time      1.1603
    MIXING:  cpu time      0.0058: real time      0.0058
    --------------------------------------------
      LOOP:  cpu time     35.5207: real time     35.5285

 eigenvalue-minimisations  :  7624
 total energy-change (2. order) :-0.3786323E-03  (-0.6915944E-03)
 number of electron     384.0000007 magnetization 
 augmentation part       95.0380755 magnetization 

 Broyden mixing:
  rms(total) = 0.14394E-01    rms(broyden)= 0.14385E-01
  rms(prec ) = 0.16730E-01
  weight for this iteration     100.00

 eigenvalues of (default mixing * dielectric matrix)
  average eigenvalue GAMMA=   1.3933
  2.3835  2.3835  0.8332  0.8332  1.1751  1.1751  0.9693

 Free energy of the ion-electron system (eV)
  ---------------------------------------------------
  alpha Z        PSCENC =      1501.27596003
  Ewald energy   TEWEN  =    -31159.69499418
  -Hartree energ DENC   =    -10553.03708735
  -exchange      EXHF   =         0.00000000
  -V(xc)+E(xc)   XCENC  =      1264.26572556
  PAW double counting   =     37329.68338125   -36736.90354322
  entropy T*S    EENTRO =        -0.00000000
  eigenvalues    EBANDS =     -2192.87669807
  atomic energy  EATOM  =     40341.65184589
  Solvation  Ediel_sol  =         0.00000000
  ---------------------------------------------------
  free energy    TOTEN  =      -205.63541009 eV

  energy without entropy =     -205.63541009  energy(sigma->0) =     -205.63541009


--------------------------------------------------------------------------------------------------------




--------------------------------------- Iteration      1(  13)  ---------------------------------------


    POTLOK:  cpu time      0.1248: real time      0.1249
    SETDIJ:  cpu time      0.4336: real time      0.4337
     EDDAV:  cpu time     30.5187: real time     30.5185
       DOS:  cpu time      0.0019: real time      0.0019
    CHARGE:  cpu time      1.1614: real time      1.1619
    MIXING:  cpu time      0.0058: real time      0.0058
    --------------------------------------------
      LOOP:  cpu time     32.2461: real time     32.2467

 eigenvalue-minimisations  :  6672
 total energy-change (2. order) : 0.1036503E-03  (-0.9156527E-04)
 number of electron     384.0000007 magnetization 
 augmentation part       95.0392498 magnetization 

 Broyden mixing:
  rms(total) = 0.49530E-02    rms(broyden)= 0.49517E-02
  rms(prec ) = 0.55146E-02
  weight for this iteration     100.00

 eigenvalues of (default mixing * dielectric matrix)
  average eigenvalue GAMMA=   1.4151
  2.5230  2.5230  1.2870  0.8386  0.8386  0.9356  1.1876  1.1876

 Free energy of the ion-electron system (eV)
  ---------------------------------------------------
  alpha Z        PSCENC =      1501.27596003
  Ewald energy   TEWEN  =    -31159.69499418
  -Hartree energ DENC   =    -10552.62886584
  -exchange      EXHF   =         0.00000000
  -V(xc)+E(xc)   XCENC  =      1264.24411845
  PAW double counting   =     37331.00222992   -36738.40734607
  entropy T*S    EENTRO =        -0.00000000
  eigenvalues    EBANDS =     -2193.07825465
  atomic energy  EATOM  =     40341.65184589
  Solvation  Ediel_sol  =         0.00000000
  ---------------------------------------------------
  free energy    TOTEN  =      -205.63530644 eV

  energy without entropy =     -205.63530644  energy(sigma->0) =     -205.63530644


--------------------------------------------------------------------------------------------------------




--------------------------------------- Iteration      1(  14)  ---------------------------------------


    POTLOK:  cpu time      0.1251: real time      0.1251
    SETDIJ:  cpu time      0.4308: real time      0.4310
     EDDAV:  cpu time     30.3038: real time     30.3410
       DOS:  cpu time      0.0018: real time      0.0020
    CHARGE:  cpu time      1.1574: real time      1.1587
    MIXING:  cpu time      0.0084: real time      0.0084
    --------------------------------------------
      LOOP:  cpu time     32.0273: real time     32.0662

 eigenvalue-minimisations  :  6624
 total energy-change (2. order) :-0.6551373E-05  (-0.1298143E-04)
 number of electron     384.0000007 magnetization 
 augmentation part       95.0407233 magnetization 

 Broyden mixing:
  rms(total) = 0.29792E-02    rms(broyden)= 0.29788E-02
  rms(prec ) = 0.34366E-02
  weight for this iteration     100.00

 eigenvalues of (default mixing * dielectric matrix)
  average eigenvalue GAMMA=   1.3609
  2.4364  2.4364  1.5454  1.2670  1.2670  0.8388  0.8388  0.9472  0.6709

 Free energy of the ion-electron system (eV)
  ---------------------------------------------------
  alpha Z        PSCENC =      1501.27596003
  Ewald energy   TEWEN  =    -31159.69499418
  -Hartree energ DENC   =    -10552.69720089
  -exchange      EXHF   =         0.00000000
  -V(xc)+E(xc)   XCENC  =      1264.24715249
  PAW double counting   =     37326.63308028   -36734.05697557
  entropy T*S    EENTRO =        -0.00000000
  eigenvalues    EBANDS =     -2192.99418105
  atomic energy  EATOM  =     40341.65184589
  Solvation  Ediel_sol  =         0.00000000
  ---------------------------------------------------
  free energy    TOTEN  =      -205.63531300 eV

  energy without entropy =     -205.63531300  energy(sigma->0) =     -205.63531300


--------------------------------------------------------------------------------------------------------




--------------------------------------- Iteration      1(  15)  ---------------------------------------


    POTLOK:  cpu time      0.1244: real time      0.1247
    SETDIJ:  cpu time      0.4517: real time      0.4519
     EDDAV:  cpu time     32.8408: real time     32.8779
       DOS:  cpu time      0.0021: real time      0.0022
    CHARGE:  cpu time      1.1610: real time      1.1626
    MIXING:  cpu time      0.0060: real time      0.0060
    --------------------------------------------
      LOOP:  cpu time     34.5860: real time     34.6252

 eigenvalue-minimisations  :  7368
 total energy-change (2. order) : 0.1044534E-04  (-0.5906273E-05)
 number of electron     384.0000007 magnetization 
 augmentation part       95.0425372 magnetization 

 Broyden mixing:
  rms(total) = 0.76490E-03    rms(broyden)= 0.76248E-03
  rms(prec ) = 0.85951E-03
  weight for this iteration     100.00

 eigenvalues of (default mixing * dielectric matrix)
  average eigenvalue GAMMA=   1.4357
  2.6714  2.6714  2.2467  1.2099  1.2099  0.9523  0.8407  0.8407  0.8572  0.8572

 Free energy of the ion-electron system (eV)
  ---------------------------------------------------
  alpha Z        PSCENC =      1501.27596003
  Ewald energy   TEWEN  =    -31159.69499418
  -Hartree energ DENC   =    -10552.61727127
  -exchange      EXHF   =         0.00000000
  -V(xc)+E(xc)   XCENC  =      1264.24057712
  PAW double counting   =     37324.51554163   -36731.92990245
  entropy T*S    EENTRO =        -0.00000000
  eigenvalues    EBANDS =     -2193.07705933
  atomic energy  EATOM  =     40341.65184589
  Solvation  Ediel_sol  =         0.00000000
  ---------------------------------------------------
  free energy    TOTEN  =      -205.63530255 eV

  energy without entropy =     -205.63530255  energy(sigma->0) =     -205.63530255


--------------------------------------------------------------------------------------------------------




--------------------------------------- Iteration      1(  16)  ---------------------------------------


    POTLOK:  cpu time      0.1242: real time      0.1243
    SETDIJ:  cpu time      0.4398: real time      0.4400
     EDDAV:  cpu time     29.8000: real time     29.8346
       DOS:  cpu time      0.0015: real time      0.0016
    CHARGE:  cpu time      1.1573: real time      1.1594
    MIXING:  cpu time      0.0067: real time      0.0067
    --------------------------------------------
[...]
    168       5.7835      2.00000
    169       5.8753      2.00000
    170       5.8756      2.00000
    171       5.8756      2.00000
    172       5.8759      2.00000
    173       5.9674      2.00000
    174       5.9684      2.00000
    175       5.9684      2.00000
    176       5.9693      2.00000
    177       6.1991      2.00000
    178       6.2065      2.00000
    179       6.2065      2.00000
    180       6.2234      2.00000
    181       6.6635      2.00000
    182       6.7070      2.00000
    183       6.7070      2.00000
    184       6.7292      2.00000
    185       7.3655      2.00000
    186       7.3655      2.00000
    187       7.4146      2.00000
    188       7.4423      2.00000
    189       7.5100      2.00000
    190       7.5100      2.00000
    191       7.5350      2.00000
    192       7.5570      2.00000
    193       9.7293      0.00000
    194       9.7708      0.00000
    195       9.7708      0.00000
    196       9.8040      0.00000
    197      10.5697      0.00000
    198      10.6041      0.00000
    199      10.6041      0.00000
    200      10.6308      0.00000
    201      10.8155      0.00000
    202      10.8260      0.00000
    203      10.8456      0.00000
    204      10.8456      0.00000
    205      11.1654      0.00000
    206      11.1919      0.00000
    207      11.2095      0.00000
    208      11.2095      0.00000
    209      11.7351      0.00000
    210      11.7351      0.00000
    211      11.7625      0.00000
    212      11.7962      0.00000
    213      11.8763      0.00000
    214      11.9080      0.00000
    215      11.9080      0.00000
    216      11.9457      0.00000
    217      12.8265      0.00000
    218      12.8265      0.00000
    219      12.8366      0.00000
    220      12.8584      0.00000
    221      13.0471      0.00000
    222      13.0471      0.00000
    223      13.0481      0.00000
    224      13.0761      0.00000
    225      13.4943      0.00000
    226      13.5320      0.00000
    227      13.5320      0.00000
    228      13.5350      0.00000
    229      13.5815      0.00000
    230      13.5816      0.00000
    231      13.6658      0.00000
    232      13.7030      0.00000


--------------------------------------------------------------------------------------------------------


 soft charge-density along one line, spin component           1
         0         1         2         3         4         5         6         7         8         9
 total charge-density along one line
 
 pseudopotential strength for first ion, spin component:           1
-16.521   0.001   0.001   0.001   0.000   3.195  -0.000  -0.000
  0.001 -16.499   0.001  -0.001  -0.001  -0.000   3.185  -0.000
  0.001   0.001 -16.526   0.001  -0.000  -0.000  -0.000   3.199
  0.001  -0.001   0.001 -16.499   0.001  -0.000   0.000  -0.000
  0.000  -0.001  -0.000   0.001 -16.505  -0.000   0.000   0.000
  3.195  -0.000  -0.000  -0.000  -0.000   6.167   0.000   0.000
 -0.000   3.185  -0.000   0.000   0.000   0.000   6.170   0.000
 -0.000  -0.000   3.199  -0.000   0.000   0.000   0.000   6.168
 -0.000   0.000  -0.000   3.185  -0.000   0.000  -0.000   0.000
 -0.000   0.000   0.000  -0.000   3.186  -0.000  -0.000  -0.000
 -0.000   0.000   0.004   0.000  -0.000   0.000  -0.000   0.003
  0.000  -0.000  -0.006  -0.000  -0.000  -0.000   0.000  -0.003
  0.000  -0.018  -0.000  -0.000  -0.000   0.000   0.004   0.000
 -0.000   0.000  -0.021   0.000   0.000  -0.000   0.000   0.004
  0.000  -0.000  -0.000  -0.018   0.000   0.000  -0.000   0.000
  0.000  -0.031  -0.000  -0.000  -0.000   0.000   0.003   0.000
 -0.000   0.000  -0.033   0.000   0.000  -0.000   0.000   0.001
  0.000  -0.000  -0.000  -0.031   0.000   0.000  -0.000   0.000
 total augmentation occupancy for first ion, spin component:           1
  2.000   0.000   0.000   0.000   0.000  -0.001   0.000   0.000   0.000   0.000  -0.000  -0.000  -0.000  -0.000  -0.000   0.000
  0.000   1.999  -0.000  -0.000  -0.000   0.000  -0.002   0.000  -0.000  -0.000   0.000   0.000   0.038  -0.000  -0.000  -0.013
  0.000  -0.000   2.001  -0.000  -0.000   0.000   0.000   0.002   0.000   0.000   0.001   0.001   0.000   0.037   0.000  -0.000
  0.000  -0.000  -0.000   1.999   0.000   0.000  -0.000   0.000  -0.002   0.000   0.000   0.000  -0.000  -0.000   0.038   0.000
  0.000  -0.000  -0.000   0.000   1.999   0.000  -0.000   0.000   0.000  -0.003   0.000   0.000   0.000   0.000  -0.000  -0.000
 -0.001   0.000   0.000   0.000   0.000   0.027   0.000   0.000   0.000   0.000  -0.001  -0.001   0.002  -0.002   0.002  -0.000
  0.000  -0.002   0.000  -0.000  -0.000   0.000   0.058   0.000  -0.001  -0.001   0.000   0.001  -0.084   0.000  -0.002   0.013
  0.000   0.000   0.002   0.000   0.000   0.000   0.000   0.020   0.000  -0.000   0.012  -0.004  -0.001   0.003  -0.001   0.000
  0.000  -0.000   0.000  -0.002   0.000   0.000  -0.001   0.000   0.058   0.001   0.000   0.001  -0.002   0.000  -0.084   0.000
  0.000  -0.000   0.000   0.000  -0.003   0.000  -0.001  -0.000   0.001   0.060   0.000  -0.000   0.000   0.000  -0.000  -0.000
 -0.000   0.000   0.001   0.000   0.000  -0.001   0.000   0.012   0.000   0.000   2.048  -0.020  -0.001   0.184  -0.001  -0.000
 -0.000   0.000   0.001   0.000   0.000  -0.001   0.001  -0.004   0.001  -0.000  -0.020   0.036   0.001  -0.086   0.001  -0.000
 -0.000   0.038   0.000  -0.000   0.000   0.002  -0.084  -0.001  -0.002   0.000  -0.001   0.001   0.971   0.007  -0.007  -0.096
 -0.000  -0.000   0.037  -0.000   0.000  -0.002   0.000   0.003   0.000   0.000   0.184  -0.086   0.007   1.066   0.007  -0.001
 -0.000  -0.000   0.000   0.038  -0.000   0.002  -0.002  -0.001  -0.084  -0.000  -0.001   0.001  -0.007   0.007   0.971   0.001
  0.000  -0.013  -0.000   0.000  -0.000  -0.000   0.013   0.000   0.000  -0.000  -0.000  -0.000  -0.096  -0.001   0.001   0.012
  0.000   0.000  -0.021   0.000  -0.000   0.000   0.000   0.000   0.000   0.000  -0.012   0.009  -0.001  -0.102  -0.001   0.000
  0.000   0.000  -0.000  -0.013   0.000  -0.000   0.000   0.000   0.013   0.000  -0.000  -0.000   0.001  -0.001  -0.096  -0.000


------------------------ aborting loop because EDIFF is reached ----------------------------------------


    CHARGE:  cpu time      1.1628: real time      1.1630
    FORLOC:  cpu time      0.0133: real time      0.0133
    FORNL :  cpu time      4.7015: real time      4.7026
    STRESS:  cpu time     15.3711: real time     15.3757
    FORCOR:  cpu time      0.1274: real time      0.1279
    FORHAR:  cpu time      0.0440: real time      0.0440
    MIXING:  cpu time      0.0036: real time      0.0036
    OFIELD:  cpu time      0.0001: real time      0.0001

  FORCE on cell =-STRESS in cart. coord.  units (eV):
  Direction    XX          YY          ZZ          XY          YZ          ZX
  --------------------------------------------------------------------------------------
  Alpha Z  1501.27596  1501.27596  1501.27596
  Ewald   -9193.51902 -9193.51902-12772.77004     0.00000     0.00000    -0.00000
  Hartree  4635.28948  4635.28948  1282.06384    -0.00000    -0.00000    -0.00000
  E(xc)   -1837.03957 -1837.03957 -1837.89652     0.00000     0.00000     0.00000
  Local   -3835.59812 -3835.59812  3114.74246    -0.00000     0.00000     0.00000
  n-local  1603.67960  1608.16147  1620.47833     0.83685    -0.05973     0.15292
  augment  2176.56720  2176.56720  2159.73100    -0.00000     0.00000     0.00000
  Kinetic  5001.50353  5009.57153  4978.30990    -4.47083     0.47000    -0.69600
  Fock        0.00000     0.00000     0.00000     0.00000     0.00000     0.00000
  -------------------------------------------------------------------------------------
  Total      58.43400    58.43400    45.93494     0.00000     0.00000     0.00000
  in kB     139.13878   139.13878   109.37692     0.00000     0.00000     0.00000
  external pressure =      129.22 kB  Pullay stress =        0.00 kB


 VOLUME and BASIS-vectors are now :
 -----------------------------------------------------------------------------
  energy-cutoff  :      520.00
  volume of cell :      672.87
      direct lattice vectors                 reciprocal lattice vectors
     7.526552687  0.000000000  0.000000000     0.132862951  0.000000000  0.000000000
     0.000000000  7.526552687  0.000000000     0.000000000  0.132862951  0.000000000
     0.000000000  0.000000000 11.877793734     0.000000000  0.000000000  0.084190719

  length of vectors
     7.526552687  7.526552687 11.877793734     0.132862951  0.132862951  0.084190719


 FORCES acting on ions
    electron-ion (+dipol)            ewald-force                    non-local-force                 convergence-correction
 -----------------------------------------------------------------------------------------------
   -.804E+01 -.804E+01 -.413E+03   0.789E+01 0.789E+01 0.425E+03   0.151E+00 0.151E+00 -.118E+02   -.874E-07 -.874E-07 0.758E-07
   0.804E+01 -.804E+01 -.413E+03   -.789E+01 0.789E+01 0.425E+03   -.151E+00 0.151E+00 -.118E+02   0.874E-07 -.874E-07 0.758E-07
   -.804E+01 0.804E+01 -.413E+03   0.789E+01 -.789E+01 0.425E+03   0.151E+00 -.151E+00 -.118E+02   -.874E-07 0.874E-07 0.758E-07
   0.804E+01 0.804E+01 -.413E+03   -.789E+01 -.789E+01 0.425E+03   -.151E+00 -.151E+00 -.118E+02   0.874E-07 0.874E-07 0.758E-07
   -.278E-13 0.592E-12 0.446E+03   -.284E-13 -.284E-13 -.458E+03   0.561E-19 0.631E-19 0.118E+02   0.235E-11 -.365E-11 -.170E-06
   0.122E-11 0.163E-11 0.444E+03   -.568E-13 -.133E-13 -.455E+03   -.771E-18 0.852E-18 0.117E+02   -.234E-11 -.419E-11 -.112E-06
   0.228E-11 0.173E-10 0.444E+03   -.568E-13 -.284E-13 -.455E+03   0.717E-18 -.407E-18 0.117E+02   -.151E-11 0.314E-11 -.112E-06
   0.115E-11 0.378E-11 0.443E+03   -.568E-13 0.104E-12 -.455E+03   -.378E-19 0.647E-19 0.116E+02   0.134E-11 0.497E-11 -.161E-08
   0.225E-11 0.208E-11 -.446E+03   0.853E-13 -.284E-13 0.458E+03   0.119E-18 0.200E-18 -.118E+02   0.531E-12 0.533E-12 0.170E-06
   0.112E-11 0.288E-11 -.444E+03   0.000E+00 0.178E-13 0.455E+03   0.242E-17 0.204E-18 -.117E+02   -.695E-12 0.150E-11 0.112E-06
   -.729E-13 0.418E-13 -.444E+03   -.142E-12 0.284E-13 0.455E+03   -.249E-17 0.506E-18 -.117E+02   -.259E-11 0.641E-12 0.112E-06
   0.115E-11 0.293E-13 -.443E+03   0.000E+00 -.355E-13 0.455E+03   0.412E-19 0.256E-19 -.116E+02   0.258E-11 -.269E-12 0.160E-08
   -.804E+01 -.804E+01 0.413E+03   0.789E+01 0.789E+01 -.425E+03   0.151E+00 0.151E+00 0.118E+02   -.874E-07 -.874E-07 -.758E-07
   0.804E+01 -.804E+01 0.413E+03   -.789E+01 0.789E+01 -.425E+03   -.151E+00 0.151E+00 0.118E+02   0.874E-07 -.874E-07 -.758E-07
   -.804E+01 0.804E+01 0.413E+03   0.789E+01 -.789E+01 -.425E+03   0.151E+00 -.151E+00 0.118E+02   -.874E-07 0.874E-07 -.758E-07
   0.804E+01 0.804E+01 0.413E+03   -.789E+01 -.789E+01 -.425E+03   -.151E+00 -.151E+00 0.118E+02   0.874E-07 0.874E-07 -.758E-07
   -.341E-13 0.117E-12 0.129E-11   0.142E-12 0.426E-13 0.242E-11   0.946E-27 -.235E-27 -.681E-27   -.124E-11 -.581E-12 0.314E-11
   -.266E-13 -.252E-13 0.109E-12   -.114E-12 0.568E-13 0.243E-11   0.675E-28 0.226E-26 -.695E-27   -.785E-12 0.124E-11 0.204E-11
   -.343E-13 0.391E-12 -.221E-11   0.568E-13 0.000E+00 0.262E-11   0.491E-27 0.642E-27 0.314E-27   0.783E-12 0.826E-12 0.260E-11
   -.225E+01 -.225E+01 -.143E-06   0.226E+01 0.226E+01 -.132E-10   -.969E-02 -.969E-02 -.349E-20   -.293E-08 -.293E-08 -.424E-11
   0.225E+01 -.225E+01 -.499E-11   -.226E+01 0.226E+01 -.132E-10   0.969E-02 -.969E-02 0.275E-20   0.293E-08 -.293E-08 -.541E-11
   -.225E+01 0.225E+01 -.217E-11   0.226E+01 -.226E+01 -.132E-10   -.969E-02 0.969E-02 0.952E-20   -.293E-08 0.293E-08 -.355E-11
   0.225E+01 0.225E+01 0.143E-06   -.226E+01 -.226E+01 -.132E-10   0.969E-02 0.969E-02 0.235E-20   0.293E-08 0.293E-08 -.319E-11
   -.188E-13 -.313E+01 0.937E+01   0.426E-13 0.315E+01 -.953E+01   0.433E-18 -.224E-01 0.152E+00   0.165E-11 -.835E-07 0.315E-06
   0.219E-12 -.254E+01 0.332E+01   0.284E-13 0.255E+01 -.317E+01   0.223E-18 -.128E-01 -.144E+00   -.177E-11 -.961E-07 0.298E-06
   0.525E-12 0.313E+01 0.937E+01   0.284E-13 -.315E+01 -.953E+01   0.310E-18 0.224E-01 0.152E+00   -.449E-13 0.835E-07 0.315E-06
   0.221E-12 0.254E+01 0.332E+01   0.000E+00 -.255E+01 -.317E+01   0.313E-19 0.128E-01 -.144E+00   -.120E-12 0.961E-07 0.298E-06
   -.313E+01 0.113E-11 0.937E+01   0.315E+01 -.213E-13 -.953E+01   -.224E-01 -.197E-19 0.152E+00   -.835E-07 -.114E-11 0.315E-06
   0.313E+01 0.619E-12 0.937E+01   -.315E+01 -.284E-13 -.953E+01   0.224E-01 -.117E-18 0.152E+00   0.835E-07 -.244E-11 0.315E-06
   -.254E+01 0.544E-12 0.332E+01   0.255E+01 0.142E-13 -.317E+01   -.128E-01 0.426E-19 -.144E+00   -.961E-07 0.103E-11 0.298E-06
   0.254E+01 0.375E-11 0.332E+01   -.255E+01 -.142E-13 -.317E+01   0.128E-01 0.286E-18 -.144E+00   0.961E-07 0.326E-11 0.298E-06
   -.313E+01 0.212E-12 -.937E+01   0.315E+01 0.426E-13 0.953E+01   -.224E-01 0.158E-18 -.152E+00   -.835E-07 0.244E-12 -.315E-06
   0.313E+01 -.801E-12 -.937E+01   -.315E+01 0.000E+00 0.953E+01   0.224E-01 0.935E-19 -.152E+00   0.835E-07 0.255E-11 -.315E-06
   -.254E+01 0.103E-11 -.332E+01   0.255E+01 -.355E-14 0.317E+01   -.128E-01 -.161E-18 0.144E+00   -.961E-07 -.485E-13 -.298E-06
   0.254E+01 0.379E-11 -.332E+01   -.255E+01 0.000E+00 0.317E+01   0.128E-01 0.936E-19 0.144E+00   0.961E-07 0.579E-15 -.298E-06
   -.770E-13 -.313E+01 -.937E+01   0.568E-13 0.315E+01 0.953E+01   -.364E-18 -.224E-01 -.152E+00   -.465E-12 -.835E-07 -.315E-06
   0.180E-12 -.254E+01 -.332E+01   0.853E-13 0.255E+01 0.317E+01   -.143E-18 -.128E-01 0.144E+00   0.520E-12 -.961E-07 -.298E-06
   0.465E-12 0.313E+01 -.937E+01   0.284E-13 -.315E+01 0.953E+01   -.563E-18 0.224E-01 -.152E+00   0.492E-12 0.835E-07 -.315E-06
   0.185E-12 0.254E+01 -.332E+01   0.142E-13 -.255E+01 0.317E+01   0.132E-18 0.128E-01 0.144E+00   -.467E-12 0.961E-07 -.298E-06
   -.736E-13 0.239E-11 0.879E-11   0.284E-13 0.284E-13 0.222E-11   0.666E-27 -.223E-26 0.817E-26   0.129E-11 -.953E-12 0.175E-11
 -----------------------------------------------------------------------------------------------
   0.904E-11 0.979E-10 -.313E-09   0.128E-12 -.195E-13 0.590E-12   -.938E-18 -.278E-16 -.107E-13   0.125E-12 -.265E-11 0.385E-10
 
 
 POSITION                                       TOTAL-FORCE (eV/Angst)
 -----------------------------------------------------------------------------------
      1.87115      1.87115     10.21122         0.000001      0.000001      0.000004
      5.65541      1.87115     10.21122        -0.000001      0.000001      0.000004
      1.87115      5.65541     10.21122         0.000001     -0.000001      0.000004
      5.65541      5.65541     10.21122        -0.000001     -0.000001      0.000004
      0.00000      7.52655      7.61408        -0.000000     -0.000000      0.000006
      3.76328      7.52655      7.62552        -0.000000      0.000000      0.000000
      7.52655      3.76328      7.62552        -0.000000     -0.000000      0.000000
      3.76328      3.76328      7.63784         0.000000     -0.000000     -0.000004
      7.52655      0.00000      4.26371         0.000000     -0.000000     -0.000006
      3.76328      7.52655      4.25227        -0.000000      0.000000     -0.000000
      0.00000      3.76328      4.25227         0.000000      0.000000     -0.000000
      3.76328      3.76328      4.23995        -0.000000      0.000000      0.000004
      1.87115      1.87115      1.66657         0.000001      0.000001     -0.000004
      5.65541      1.87115      1.66657        -0.000001      0.000001     -0.000004
      1.87115      5.65541      1.66657         0.000001     -0.000001     -0.000004
      5.65541      5.65541      1.66657        -0.000001     -0.000001     -0.000004
      3.76328      7.52655     11.87779        -0.000000      0.000000      0.000000
      0.00000      3.76328     11.87779        -0.000000     -0.000000      0.000000
      3.76328      3.76328      0.00000        -0.000000     -0.000000      0.000000
      1.88581      1.88581      5.93890        -0.000001     -0.000001      0.000000
      5.64074      1.88581      5.93890         0.000001     -0.000001      0.000000
      1.88581      5.64074      5.93890        -0.000001      0.000001      0.000000
      5.64074      5.64074      5.93890         0.000001      0.000001      0.000000
      0.00000      1.87674      8.91004         0.000000      0.000002      0.000007
      3.76328      1.87772      8.92758         0.000000      0.000002      0.000005
      7.52655      5.64982      8.91004         0.000000     -0.000002      0.000007
      3.76328      5.64883      8.92758        -0.000000     -0.000002      0.000005
      1.87674      0.00000      8.91004         0.000002      0.000000      0.000007
      5.64982      0.00000      8.91004        -0.000002     -0.000000      0.000007
      1.87772      3.76328      8.92758         0.000002     -0.000000      0.000005
      5.64883      3.76328      8.92758        -0.000002      0.000000      0.000005
      1.87674      7.52655      2.96776         0.000002      0.000000     -0.000007
      5.64982      7.52655      2.96776        -0.000002      0.000000     -0.000007
      1.87772      3.76328      2.95021         0.000002      0.000000     -0.000005
      5.64883      3.76328      2.95021        -0.000002      0.000000     -0.000005
      0.00000      1.87674      2.96776        -0.000000      0.000002     -0.000007
      3.76328      1.87772      2.95021        -0.000000      0.000002     -0.000005
      7.52655      5.64982      2.96776        -0.000000     -0.000002     -0.000007
      3.76328      5.64883      2.95021        -0.000000     -0.000002     -0.000005
      7.52655      7.52655     11.87779        -0.000000      0.000000      0.000000
 -----------------------------------------------------------------------------------
    total drift:                                0.000000      0.000000     -0.000000


--------------------------------------------------------------------------------------------------------



  FREE ENERGIE OF THE ION-ELECTRON SYSTEM (eV)
  ---------------------------------------------------
  free  energy   TOTEN  =      -205.63530111 eV

  energy  without entropy=     -205.63530111  energy(sigma->0) =     -205.63530111
 
 d Force = 0.4864688E-11[ 0.867E-12, 0.886E-11]  d Energy = 0.3437890E-09-0.339E-09
 d Force =-0.1484527E-03[-0.148E-03,-0.148E-03]  d Ewald  =-0.1484524E-03-0.331E-09


--------------------------------------------------------------------------------------------------------


    POTLOK:  cpu time      0.5895: real time      0.5895


--------------------------------------------------------------------------------------------------------




--------------------------------------------------------------------------------------------------------


  
 reached required accuracy - stopping structural energy minimisation
     LOOP+:  cpu time    122.2641: real time    122.2999
    4ORBIT:  cpu time      0.0000: real time      0.0000

 total amount of memory used by VASP MPI-rank0    87007. kBytes
=======================================================================

   base      :      30000. kBytes
   nonl-proj :      15224. kBytes
   fftplans  :      11226. kBytes
   grid      :       7273. kBytes
   one-center:         77. kBytes
   wavefun   :      23207. kBytes
 
  
  
 General timing and accounting informations for this job:
 ========================================================
  
                  Total CPU time used (sec):     1388.789
                            User time (sec):     1384.778
                          System time (sec):        4.011
                         Elapsed time (sec):     1389.384
  
                   Maximum memory used (kb):      181448.
                   Average memory used (kb):          N/A
  
                          Minor page faults:        33048
                          Major page faults:           11
                 Voluntary context switches:          176
