<?xml version="1.0" encoding="ISO-8859-1"?>
<modeling>
 <generator>
  <i name="program" type="string">vasp </i>
  <i name="version" type="string">6.4.3  </i>
  <i name="subversion" type="string">19Mar24 (build Apr 09 2025 20:43:19) complex                          parallel </i>
  <i name="platform" type="string">LinuxIFC </i>
  <i name="date" type="string">2025 04 12 </i>
  <i name="time" type="string">17:26:22 </i>
 </generator>
 <incar>
  <i type="string" name="PREC">Accurate</i>
  <i type="int" name="IALGO">    38</i>
  <i type="logical" name="ADDGRID"> T  </i>
  <i type="int" name="NELMIN">     5</i>
  <i type="int" name="IBRION">     2</i>
  <i name="EDIFF">      0.00000001</i>
  <i name="EDIFFG">     -0.00001000</i>
  <i type="int" name="NSW">   100</i>
  <i type="int" name="ISIF">     2</i>
  <i name="ENCUT">    520.00000000</i>
  <i type="logical" name="LREAL"> F  </i>
  <i type="int" name="ISMEAR">     0</i>
  <i name="SIGMA">      0.05000000</i>
  <i type="logical" name="LWAVE"> F  </i>
  <i type="logical" name="LCHARG"> F  </i>
 </incar>
 <primitive_cell>
  <structure name="primitive_cell" >
   <crystal>
    <varray name="basis" >
     <v>       7.52655269       0.00000000       0.00000000 </v>
     <v>       0.00000000       7.52655269       0.00000000 </v>
     <v>       0.00000000       0.00000000      11.87779373 </v>
    </varray>
    <i name="volume">    672.86508197 </i>
    <varray name="rec_basis" >
     <v>       0.13286295       0.00000000       0.00000000 </v>
     <v>       0.00000000       0.13286295       0.00000000 </v>
     <v>       0.00000000       0.00000000       0.08419072 </v>
    </varray>
   </crystal>
   <varray name="positions" >
    <v>       0.24860618       0.24860618       0.85968998 </v>
    <v>       0.75139382       0.24860618       0.85968998 </v>
    <v>       0.24860618       0.75139382       0.85968998 </v>
    <v>       0.75139382       0.75139382       0.85968998 </v>
    <v>       0.00000000       0.00000000       0.64103508 </v>
    <v>       0.50000000       0.00000000       0.64199837 </v>
    <v>       0.00000000       0.50000000       0.64199837 </v>
    <v>       0.50000000       0.50000000       0.64303537 </v>
    <v>       0.00000000       0.00000000       0.35896492 </v>
    <v>       0.50000000       0.00000000       0.35800163 </v>
    <v>       0.00000000       0.50000000       0.35800163 </v>
    <v>       0.50000000       0.50000000       0.35696463 </v>
    <v>       0.24860618       0.24860618       0.14031002 </v>
    <v>       0.75139382       0.24860618       0.14031002 </v>
    <v>       0.24860618       0.75139382       0.14031002 </v>
    <v>       0.75139382       0.75139382       0.14031002 </v>
    <v>       0.50000000       0.00000000       0.00000000 </v>
    <v>       0.00000000       0.50000000       0.00000000 </v>
    <v>       0.50000000       0.50000000       0.00000000 </v>
    <v>       0.25055461       0.25055461       0.50000000 </v>
    <v>       0.74944539       0.25055461       0.50000000 </v>
    <v>       0.25055461       0.74944539       0.50000000 </v>
    <v>       0.74944539       0.74944539       0.50000000 </v>
    <v>       0.00000000       0.24934872       0.75014239 </v>
    <v>       0.50000000       0.24947961       0.75161971 </v>
    <v>       0.00000000       0.75065128       0.75014239 </v>
    <v>       0.50000000       0.75052039       0.75161971 </v>
    <v>       0.24934872       0.00000000       0.75014239 </v>
    <v>       0.75065128       0.00000000       0.75014239 </v>
    <v>       0.24947961       0.50000000       0.75161971 </v>
    <v>       0.75052039       0.50000000       0.75161971 </v>
    <v>       0.24934872       0.00000000       0.24985761 </v>
    <v>       0.75065128       0.00000000       0.24985761 </v>
    <v>       0.24947961       0.50000000       0.24838029 </v>
    <v>       0.75052039       0.50000000       0.24838029 </v>
    <v>       0.00000000       0.24934872       0.24985761 </v>
    <v>       0.50000000       0.24947961       0.24838029 </v>
    <v>       0.00000000       0.75065128       0.24985761 </v>
    <v>       0.50000000       0.75052039       0.24838029 </v>
    <v>       0.00000000       0.00000000       0.00000000 </v>
   </varray>
  </structure>
  <varray name="primitive_index" >
   <v type="int" >        1 </v>
   <v type="int" >        2 </v>
   <v type="int" >        3 </v>
   <v type="int" >        4 </v>
   <v type="int" >        5 </v>
   <v type="int" >        6 </v>
   <v type="int" >        7 </v>
   <v type="int" >        8 </v>
   <v type="int" >        9 </v>
   <v type="int" >       10 </v>
   <v type="int" >       11 </v>
   <v type="int" >       12 </v>
   <v type="int" >       13 </v>
   <v type="int" >       14 </v>
   <v type="int" >       15 </v>
   <v type="int" >       16 </v>
   <v type="int" >       17 </v>
   <v type="int" >       18 </v>
   <v type="int" >       19 </v>
   <v type="int" >       20 </v>
   <v type="int" >       21 </v>
   <v type="int" >       22 </v>
   <v type="int" >       23 </v>
   <v type="int" >       24 </v>
   <v type="int" >       25 </v>
   <v type="int" >       26 </v>
   <v type="int" >       27 </v>
   <v type="int" >       28 </v>
   <v type="int" >       29 </v>
   <v type="int" >       30 </v>
   <v type="int" >       31 </v>
   <v type="int" >       32 </v>
   <v type="int" >       33 </v>
   <v type="int" >       34 </v>
   <v type="int" >       35 </v>
   <v type="int" >       36 </v>
   <v type="int" >       37 </v>
   <v type="int" >       38 </v>
   <v type="int" >       39 </v>
   <v type="int" >       40 </v>
  </varray>
 </primitive_cell>
 <kpoints>
  <generation param="Gamma">
   <v type="int" name="divisions">       4        4        3 </v>
   <v name="usershift">      0.00000000       0.00000000       0.00000000 </v>
   <v name="genvec1">      0.25000000       0.00000000       0.00000000 </v>
   <v name="genvec2">      0.00000000       0.25000000       0.00000000 </v>
   <v name="genvec3">      0.00000000       0.00000000       0.33333333 </v>
   <v name="shift">      0.00000000       0.00000000       0.00000000 </v>
  </generation>
  <varray name="kpointlist" >
   <v>       0.00000000       0.00000000       0.00000000 </v>
   <v>       0.25000000       0.00000000       0.00000000 </v>
   <v>       0.50000000       0.00000000       0.00000000 </v>
   <v>       0.25000000       0.25000000       0.00000000 </v>
   <v>       0.50000000       0.25000000       0.00000000 </v>
   <v>       0.50000000       0.50000000       0.00000000 </v>
   <v>       0.00000000       0.00000000       0.33333333 </v>
   <v>       0.25000000       0.00000000       0.33333333 </v>
   <v>       0.50000000       0.00000000       0.33333333 </v>
   <v>       0.25000000       0.25000000       0.33333333 </v>
   <v>       0.50000000       0.25000000       0.33333333 </v>
   <v>       0.50000000       0.50000000       0.33333333 </v>
  </varray>
  <varray name="weights" >
   <v>       0.02083333 </v>
   <v>       0.08333333 </v>
   <v>       0.04166667 </v>
   <v>       0.08333333 </v>
   <v>       0.08333333 </v>
   <v>       0.02083333 </v>
   <v>       0.04166667 </v>
   <v>       0.16666667 </v>
   <v>       0.08333333 </v>
   <v>       0.16666667 </v>
   <v>       0.16666667 </v>
   <v>       0.04166667 </v>
  </varray>
 </kpoints>
 <parameters>
  <separator name="general" >
   <i type="string" name="SYSTEM">unknown system</i>
   <i type="logical" name="LCOMPAT"> F  </i>
  </separator>
  <separator name="electronic" >
   <i type="string" name="PREC">accura</i>
   <i name="ENMAX">    520.00000000</i>
   <i name="ENAUG">    605.39200000</i>
   <i name="EDIFF">      0.00000001</i>
   <i type="int" name="IALGO">    38</i>
   <i type="int" name="IWAVPR">    11</i>
   <i type="int" name="NBANDS">   232</i>
   <i type="int" name="NBANDSLOW">    -1</i>
   <i type="int" name="NBANDSHIGH">    -1</i>
   <i name="NELECT">    384.00000000</i>
   <i type="int" name="TURBO">     0</i>
   <i type="int" name="IRESTART">     0</i>
   <i type="int" name="NREBOOT">     0</i>
   <i type="int" name="NMIN">     0</i>
   <i name="EREF">      0.00000000</i>
   <separator name="electronic smearing" >
    <i type="int" name="ISMEAR">     0</i>
    <i name="SIGMA">      0.05000000</i>
    <i name="KSPACING">      0.50000000</i>
    <i type="logical" name="KGAMMA"> T  </i>
    <i type="logical" name="KBLOWUP"> T  </i>
   </separator>
   <separator name="electronic projectors" >
    <i type="logical" name="LREAL"> F  </i>
    <v name="ROPT">      0.00000000      0.00000000      0.00000000      0.00000000</v>
    <i type="int" name="LMAXPAW">  -100</i>
    <i type="int" name="LMAXMIX">     2</i>
    <i type="logical" name="NLSPLINE"> F  </i>
   </separator>
   <separator name="electronic startup" >
    <i type="int" name="ISTART">     0</i>
    <i type="int" name="ICHARG">     2</i>
    <i type="int" name="INIWAV">     1</i>
   </separator>
   <separator name="electronic spin" >
    <i type="int" name="ISPIN">     1</i>
    <i type="logical" name="LNONCOLLINEAR"> F  </i>
    <v name="MAGMOM">      1.00000000      1.00000000      1.00000000      1.00000000      1.00000000      1.00000000      1.00000000      1.00000000      1.00000000      1.00000000      1.00000000      1.00000000      1.00000000      1.00000000      1.00000000      1.00000000      1.00000000      1.00000000      1.00000000      1.00000000
      1.00000000      1.00000000      1.00000000      1.00000000      1.00000000      1.00000000      1.00000000      1.00000000      1.00000000      1.00000000      1.00000000      1.00000000      1.00000000      1.00000000      1.00000000      1.00000000      1.00000000      1.00000000      1.00000000      1.00000000
</v>
    <i name="NUPDOWN">     -1.00000000</i>
    <i type="logical" name="LSORBIT"> F  </i>
    <v name="SAXIS">      0.00000000      0.00000000      1.00000000</v>
    <i type="logical" name="LSPIRAL"> F  </i>
    <v name="QSPIRAL">      0.00000000      0.00000000      0.00000000</v>
    <i type="logical" name="LZEROZ"> F  </i>
   </separator>
   <separator name="electronic exchange-correlation" >
    <i type="logical" name="LASPH"> F  </i>
   </separator>
   <separator name="electronic convergence" >
    <i type="int" name="NELM">    60</i>
    <i type="int" name="NELMDL">    -5</i>
    <i type="int" name="NELMIN">     5</i>
    <i name="ENINI">    520.00000000</i>
    <separator name="electronic convergence detail" >
     <i type="logical" name="LDIAG"> T  </i>
     <i type="logical" name="LSUBROT"> F  </i>
     <i name="WEIMIN">      0.00100000</i>
     <i name="EBREAK">      0.00000000</i>
     <i name="DEPER">      0.30000000</i>
     <i type="int" name="NRMM">     4</i>
     <i name="TIME">      0.40000000</i>
    </separator>
   </separator>
   <separator name="electronic mixer" >
    <i name="AMIX">      0.40000000</i>
    <i name="BMIX">      1.00000000</i>
    <i name="AMIN">      0.10000000</i>
    <i name="AMIX_MAG">      1.60000000</i>
    <i name="BMIX_MAG">      1.00000000</i>
    <separator name="electronic mixer details" >
     <i type="int" name="IMIX">     4</i>
     <i type="logical" name="MIXFIRST"> F  </i>
     <i type="int" name="MAXMIX">   -45</i>
     <i name="WC">    100.00000000</i>
     <i type="int" name="INIMIX">     1</i>
     <i type="int" name="MIXPRE">     1</i>
     <i type="int" name="MREMOVE">     5</i>
    </separator>
   </separator>
   <separator name="electronic dipolcorrection" >
    <i type="logical" name="LDIPOL"> F  </i>
    <i type="logical" name="LMONO"> F  </i>
    <i type="int" name="IDIPOL">     0</i>
    <i name="EPSILON">      1.00000000</i>
    <v name="DIPOL">   -100.00000000   -100.00000000   -100.00000000</v>
    <i name="EFIELD">      0.00000000</i>
    <i type="logical" name="LVACPOTAV"> F  </i>
   </separator>
  </separator>
  <separator name="grids" >
   <i type="int" name="NGX">    56</i>
   <i type="int" name="NGY">    56</i>
   <i type="int" name="NGZ">    90</i>
   <i type="int" name="NGXF">   112</i>
   <i type="int" name="NGYF">   112</i>
   <i type="int" name="NGZF">   180</i>
   <i type="logical" name="ADDGRID"> T  </i>
  </separator>
  <separator name="ionic" >
   <i type="int" name="NSW">   100</i>
   <i type="int" name="IBRION">     2</i>
   <i type="int" name="MDALGO">     0</i>
   <i type="int" name="ISIF">     2</i>
   <i name="PSTRESS">      0.00000000</i>
   <i name="EDIFFG">     -0.00001000</i>
   <i type="int" name="NFREE">     1</i>
   <i name="POTIM">      0.50000000</i>
   <i name="SMASS">     -3.00000000</i>
   <i name="SCALEE">      1.00000000</i>
  </separator>
  <separator name="ionic md" >
   <i name="TEBEG">      0.00010000</i>
   <i name="TEEND">      0.00010000</i>
   <i type="int" name="NBLOCK">     1</i>
   <i type="int" name="KBLOCK">   100</i>
   <i type="int" name="NPACO">   256</i>
   <i name="APACO">     10.00000000</i>
  </separator>
  <separator name="symmetry" >
   <i type="int" name="ISYM">     2</i>
   <i name="SYMPREC">      0.00001000</i>
  </separator>
  <separator name="dos" >
   <i type="int" name="LORBIT">     0</i>
   <v name="RWIGS">     -1.00000000     -1.00000000     -1.00000000     -1.00000000</v>
   <i type="int" name="NEDOS">   301</i>
   <i name="EMIN">     10.00000000</i>
   <i name="EMAX">    -10.00000000</i>
   <i name="EFERMI">      0.00000000</i>
  </separator>
  <separator name="writing" >
   <i type="int" name="NWRITE">     2</i>
   <i type="logical" name="LWAVE"> F  </i>
   <i type="logical" name="LDOWNSAMPLE"> F  </i>
   <i type="logical" name="LCHARG"> F  </i>
   <i type="logical" name="LPARD"> F  </i>
   <i type="logical" name="LVTOT"> F  </i>
   <i type="logical" name="LVHAR"> F  </i>
   <i type="logical" name="LELF"> F  </i>
   <i type="logical" name="LOPTICS"> F  </i>
   <v name="STM">      0.00000000      0.00000000      0.00000000      0.00000000      0.00000000      0.00000000      0.00000000</v>
  </separator>
  <separator name="performance" >
   <i type="int" name="NPAR">     4</i>
   <i type="int" name="NSIM">     4</i>
   <i type="int" name="NBLK">    -1</i>
   <i type="logical" name="LPLANE"> T  </i>
   <i type="logical" name="LSCALAPACK"> T  </i>
   <i type="logical" name="LSCAAWARE"> F  </i>
   <i type="logical" name="LSCALU"> F  </i>
   <i type="logical" name="LASYNC"> F  </i>
   <i type="logical" name="LORBITALREAL"> F  </i>
  </separator>
  <separator name="miscellaneous" >
   <i type="int" name="IDIOT">     3</i>
   <i type="int" name="PHON_NSTRUCT">    -1</i>
   <i type="logical" name="LMUSIC"> F  </i>
   <v name="POMASS">    208.98000000     78.96000000     16.00000000     32.06600000</v>
   <v name="DARWINR">      0.00000000      0.00000000      0.00000000      0.00000000</v>
   <v name="DARWINV">      1.00000000      1.00000000      1.00000000      1.00000000</v>
   <i type="logical" name="LCORR"> T  </i>
  </separator>
  <i type="logical" name="GGA_COMPAT"> T  </i>
  <i type="logical" name="LBERRY"> F  </i>
  <i type="int" name="ICORELEVEL">     0</i>
  <i type="logical" name="LDAU"> F  </i>
  <i type="int" name="I_CONSTRAINED_M">     0</i>
  <separator name="electronic exchange-correlation" >
   <i type="string" name="GGA    ">PE</i>
   <i type="string" name="XC_C">1</i>
   <i type="int" name="VOSKOWN">     0</i>
   <i type="logical" name="LHFCALC"> F  </i>
   <i type="string" name="PRECFOCK"></i>
   <i type="logical" name="LSYMGRAD"> F  </i>
   <i type="logical" name="LHFONE"> F  </i>
   <i type="logical" name="LRHFCALC"> F  </i>
   <i type="logical" name="LTHOMAS"> F  </i>
   <i type="logical" name="LMODELHF"> F  </i>
   <i type="logical" name="LFOCKACE"> F  </i>
   <i name="ENCUT4O">     -1.00000000</i>
   <i type="int" name="EXXOEP">     0</i>
   <i type="int" name="FOURORBIT">     0</i>
   <i name="AEXX">      0.00000000</i>
   <i name="HFALPHA">      0.00000000</i>
   <i name="MCALPHA">      0.00000000</i>
   <i name="ALDAX">      1.00000000</i>
   <i name="AGGAX">      1.00000000</i>
   <i name="AMGGAX">      1.00000000</i>
   <i name="ALDAC">      1.00000000</i>
   <i name="AGGAC">      1.00000000</i>
   <i name="AMGGAC">      1.00000000</i>
   <i type="int" name="NKREDX">     1</i>
   <i type="int" name="NKREDY">     1</i>
   <i type="int" name="NKREDZ">     1</i>
   <i type="logical" name="SHIFTRED"> F  </i>
   <i type="logical" name="ODDONLY"> F  </i>
   <i type="logical" name="EVENONLY"> F  </i>
   <i type="int" name="LMAXFOCK">     0</i>
   <i type="int" name="NMAXFOCKAE">     0</i>
   <i type="logical" name="LFOCKAEDFT"> F  </i>
   <i name="HFSCREEN">      0.00000000</i>
   <i name="HFSCREENC">      0.00000000</i>
   <i type="int" name="NBANDSGWLOW">     0</i>
  </separator>
  <separator name="vdW DFT" >
   <i type="logical" name="LUSE_VDW"> F  </i>
   <i type="int" name="IVDW_NL">    -1</i>
   <i type="logical" name="LSPIN_VDW"> F  </i>
   <i name="ZAB_VDW">     -0.84910000</i>
   <i name="GAMMA_VDW">      1.39626340</i>
   <i name="ALPHA_VDW">      0.00000000</i>
   <i name="PARAM1">      0.12340000</i>
   <i name="PARAM2">      1.00000000</i>
   <i name="BPARAM">      6.30000000</i>
   <i name="CPARAM">      0.00930000</i>
  </separator>
  <separator name="model GW" >
   <i type="int" name="MODEL_GW">     0</i>
   <i name="MODEL_EPS0">     10.09297623</i>
   <i name="MODEL_ALPHA">      1.00000000</i>
  </separator>
  <separator name="linear response parameters" >
   <i type="logical" name="LEPSILON"> F  </i>
   <i type="logical" name="LRPA"> F  </i>
   <i type="logical" name="LNABLA"> F  </i>
   <i type="logical" name="LVEL"> F  </i>
   <i name="CSHIFT">      0.10000000</i>
   <i name="OMEGAMAX">     -1.00000000</i>
   <i name="DEG_THRESHOLD">      0.00200000</i>
   <i name="RTIME">     -0.10000000</i>
   <i name="WPLASMAI">      0.00000000</i>
   <v name="DFIELD">      0.00000000      0.00000000      0.00000000</v>
   <v name="WPLASMA">      0.00000000      0.00000000      0.00000000      0.00000000      0.00000000      0.00000000      0.00000000      0.00000000      0.00000000</v>
  </separator>
  <separator name="orbital magnetization" >
   <i type="logical" name="NUCIND"> F  </i>
   <v name="MAGPOS">      0.00000000      0.00000000      0.00000000</v>
   <i type="logical" name="LNICSALL"> T  </i>
   <i type="logical" name="ORBITALMAG"> F  </i>
   <i type="logical" name="LMAGBLOCH"> F  </i>
   <i type="logical" name="LCHIMAG"> F  </i>
   <i type="logical" name="LGAUGE"> T  </i>
   <i type="int" name="MAGATOM">     0</i>
   <v name="MAGDIPOL">      0.00000000      0.00000000      0.00000000</v>
   <v name="AVECCONST">      0.00000000      0.00000000      0.00000000</v>
  </separator>
  <separator name="response functions" >
   <i type="logical" name="LALL_IN_ONE"> F  </i>
   <i type="int" name="IALL_IN_ONE">    -1</i>
   <i type="int" name="NBANDS_WAVE">    -1</i>
   <i type="logical" name="LFINITE_TEMPERATURE"> F  </i>
   <i type="logical" name="LADDER"> F  </i>
   <i type="logical" name="LRPAFORCE"> F  </i>
   <i type="logical" name="LFXC"> F  </i>
   <i type="logical" name="LHARTREE"> T  </i>
   <i type="int" name="IBSE">     0</i>
   <v type="int" name="KPOINT">    -1     0     0     0</v>
   <i type="logical" name="LTCTC"> F  </i>
   <i type="logical" name="LTCTE"> F  </i>
   <i type="logical" name="LTETE"> F  </i>
   <i type="logical" name="LTRIPLET"> F  </i>
   <i type="logical" name="LFXCEPS"> F  </i>
   <i type="logical" name="LFXHEG"> F  </i>
   <i type="int" name="NATURALO">     2</i>
   <i type="logical" name="LHOLEGF"> F  </i>
   <i type="logical" name="L2ORDER"> F  </i>
   <i type="logical" name="LDMP1"> F  </i>
   <i type="logical" name="LMP2LT"> F  </i>
   <i type="logical" name="LSMP2LT"> F  </i>
   <i type="logical" name="LGWLF"> F  </i>
   <i name="ENCUTGW">     -1.60000002</i>
   <i name="ENCUTGWSOFT">     -1.60000002</i>
   <i name="ENCUTLF">     -1.00000000</i>
   <i type="logical" name="ESF_SPLINES"> F  </i>
   <i name="ESF_CONV">      0.01000000</i>
   <i type="int" name="ESF_NINTER">    15</i>
   <i type="int" name="LMAXMP2">    -1</i>
   <i name="SCISSOR">      0.00000000</i>
   <i type="int" name="NOMEGA">     0</i>
   <i type="int" name="NOMEGAR">     0</i>
   <i type="int" name="NBANDSGW">    -1</i>
   <i type="int" name="NBANDSO">    -1</i>
   <i type="int" name="NBANDSV">    -1</i>
   <i type="int" name="NELMGW">     1</i>
   <i type="int" name="NELMHF">     1</i>
   <i type="int" name="DIM">     3</i>
   <i type="int" name="IESPILON">     4</i>
   <i type="int" name="ANTIRES">     0</i>
   <i name="OMEGAMAX">    -30.00000000</i>
   <i name="OMEGAMIN">    -30.00000000</i>
   <i name="OMEGATL">   -200.00000000</i>
   <i type="int" name="OMEGAGRID">     0</i>
   <i name="CSHIFT">     -0.10000000</i>
   <i type="logical" name="LSELFENERGY"> F  </i>
   <i type="logical" name="LSPECTRAL"> F  </i>
   <i type="logical" name="LSPECTRALGW"> F  </i>
   <i type="logical" name="LSINGLES"> F  </i>
   <i type="logical" name="LFERMIGW"> F  </i>
   <i type="logical" name="ODDONLYGW"> F  </i>
   <i type="logical" name="EVENONLYGW"> F  </i>
   <i type="int" name="NKREDLFX">     1</i>
   <i type="int" name="NKREDLFY">     1</i>
   <i type="int" name="NKREDLFZ">     1</i>
   <i type="int" name="MAXMEM">  2800</i>
   <i type="int" name="TELESCOPE">     0</i>
   <i type="int" name="NTAUPAR">    -1</i>
   <i type="int" name="NOMEGAPAR">    -1</i>
   <i name="DAMP_NEWTON">      0.80000001</i>
   <i name="LAMBDA">      1.00000000</i>
  </separator>
  <separator name="External order field" >
   <i name="OFIELD_KAPPA">      0.00000000</i>
   <v name="OFIELD_K">      0.00000000      0.00000000      0.00000000</v>
   <i name="OFIELD_Q6_NEAR">      0.00000000</i>
   <i name="OFIELD_Q6_FAR">      0.00000000</i>
   <i name="OFIELD_A">      0.00000000</i>
  </separator>
  <separator name="optional k-points parameters" >
   <i type="int" name="KPOINTS_OPT_MODE">     1</i>
   <i type="logical" name="LKPOINTS_OPT"> F  </i>
  </separator>
 </parameters>
 <atominfo>
  <atoms>      40 </atoms>
  <types>       4 </types>
  <array name="atoms" >
   <dimension dim="1">ion</dimension>
   <field type="string">element</field>
   <field type="int">atomtype</field>
   <set>
    <rc><c>Bi</c><c>   1</c></rc>
    <rc><c>Bi</c><c>   1</c></rc>
    <rc><c>Bi</c><c>   1</c></rc>
    <rc><c>Bi</c><c>   1</c></rc>
    <rc><c>Bi</c><c>   1</c></rc>
    <rc><c>Bi</c><c>   1</c></rc>
    <rc><c>Bi</c><c>   1</c></rc>
    <rc><c>Bi</c><c>   1</c></rc>
    <rc><c>Bi</c><c>   1</c></rc>
    <rc><c>Bi</c><c>   1</c></rc>
    <rc><c>Bi</c><c>   1</c></rc>
    <rc><c>Bi</c><c>   1</c></rc>
    <rc><c>Bi</c><c>   1</c></rc>
    <rc><c>Bi</c><c>   1</c></rc>
    <rc><c>Bi</c><c>   1</c></rc>
    <rc><c>Bi</c><c>   1</c></rc>
    <rc><c>Se</c><c>   2</c></rc>
    <rc><c>Se</c><c>   2</c></rc>
    <rc><c>Se</c><c>   2</c></rc>
    <rc><c>Se</c><c>   2</c></rc>
    <rc><c>Se</c><c>   2</c></rc>
    <rc><c>Se</c><c>   2</c></rc>
    <rc><c>Se</c><c>   2</c></rc>
    <rc><c>O </c><c>   3</c></rc>
    <rc><c>O </c><c>   3</c></rc>
    <rc><c>O </c><c>   3</c></rc>
    <rc><c>O </c><c>   3</c></rc>
    <rc><c>O </c><c>   3</c></rc>
    <rc><c>O </c><c>   3</c></rc>
    <rc><c>O </c><c>   3</c></rc>
    <rc><c>O </c><c>   3</c></rc>
    <rc><c>O </c><c>   3</c></rc>
    <rc><c>O </c><c>   3</c></rc>
    <rc><c>O </c><c>   3</c></rc>
    <rc><c>O </c><c>   3</c></rc>
    <rc><c>O </c><c>   3</c></rc>
    <rc><c>O </c><c>   3</c></rc>
    <rc><c>O </c><c>   3</c></rc>
    <rc><c>O </c><c>   3</c></rc>
    <rc><c>S </c><c>   4</c></rc>
   </set>
  </array>
  <array name="atomtypes" >
   <dimension dim="1">type</dimension>
   <field type="int">atomspertype</field>
   <field type="string">element</field>
   <field>mass</field>
   <field>valence</field>
   <field type="string">pseudopotential</field>
   <set>
    <rc><c>  16</c><c>Bi</c><c>    208.98000000</c><c>     15.00000000</c><c>  PAW_PBE Bi_d 06Sep2000                </c></rc>
    <rc><c>   7</c><c>Se</c><c>     78.96000000</c><c>      6.00000000</c><c>  PAW_PBE Se 06Sep2000                  </c></rc>
    <rc><c>  16</c><c>O </c><c>     16.00000000</c><c>      6.00000000</c><c>  PAW_PBE O 08Apr2002                   </c></rc>
    <rc><c>   1</c><c>S </c><c>     32.06600000</c><c>      6.00000000</c><c>  PAW_PBE S 06Sep2000                   </c></rc>
   </set>
  </array>
 </atominfo>
 <structure name="initialpos" >
  <crystal>
   <varray name="basis" >
    <v>       7.52655269       0.00000000       0.00000000 </v>
    <v>       0.00000000       7.52655269       0.00000000 </v>
    <v>       0.00000000       0.00000000      11.87779373 </v>
   </varray>
   <i name="volume">    672.86508197 </i>
   <varray name="rec_basis" >
    <v>       0.13286295       0.00000000       0.00000000 </v>
    <v>       0.00000000       0.13286295       0.00000000 </v>
    <v>       0.00000000       0.00000000       0.08419072 </v>
   </varray>
  </crystal>
  <varray name="positions" >
   <v>       0.24860618       0.24860618       0.85968998 </v>
   <v>       0.75139382       0.24860618       0.85968998 </v>
   <v>       0.24860618       0.75139382       0.85968998 </v>
   <v>       0.75139382       0.75139382       0.85968998 </v>
   <v>       0.00000000       0.00000000       0.64103508 </v>
   <v>       0.50000000       0.00000000       0.64199837 </v>
   <v>       0.00000000       0.50000000       0.64199837 </v>
   <v>       0.50000000       0.50000000       0.64303537 </v>
   <v>       0.00000000       0.00000000       0.35896492 </v>
   <v>       0.50000000       0.00000000       0.35800163 </v>
   <v>       0.00000000       0.50000000       0.35800163 </v>
   <v>       0.50000000       0.50000000       0.35696463 </v>
   <v>       0.24860618       0.24860618       0.14031002 </v>
   <v>       0.75139382       0.24860618       0.14031002 </v>
   <v>       0.24860618       0.75139382       0.14031002 </v>
   <v>       0.75139382       0.75139382       0.14031002 </v>
   <v>       0.50000000       0.00000000       0.00000000 </v>
   <v>       0.00000000       0.50000000       0.00000000 </v>
   <v>       0.50000000       0.50000000       0.00000000 </v>
   <v>       0.25055461       0.25055461       0.50000000 </v>
   <v>       0.74944539       0.25055461       0.50000000 </v>
   <v>       0.25055461       0.74944539       0.50000000 </v>
   <v>       0.74944539       0.74944539       0.50000000 </v>
   <v>       0.00000000       0.24934872       0.75014239 </v>
   <v>       0.50000000       0.24947961       0.75161971 </v>
   <v>       0.00000000       0.75065128       0.75014239 </v>
   <v>       0.50000000       0.75052039       0.75161971 </v>
   <v>       0.24934872       0.00000000       0.75014239 </v>
   <v>       0.75065128       0.00000000       0.75014239 </v>
   <v>       0.24947961       0.50000000       0.75161971 </v>
   <v>       0.75052039       0.50000000       0.75161971 </v>
   <v>       0.24934872       0.00000000       0.24985761 </v>
   <v>       0.75065128       0.00000000       0.24985761 </v>
   <v>       0.24947961       0.50000000       0.24838029 </v>
   <v>       0.75052039       0.50000000       0.24838029 </v>
   <v>       0.00000000       0.24934872       0.24985761 </v>
   <v>       0.50000000       0.24947961       0.24838029 </v>
   <v>       0.00000000       0.75065128       0.24985761 </v>
   <v>       0.50000000       0.75052039       0.24838029 </v>
   <v>       0.00000000       0.00000000       0.00000000 </v>
  </varray>
 </structure>
 <calculation>
  <scstep>
   <time name="dav">   26.78   26.78</time>
   <time name="total">   27.37   27.37</time>
   <energy>
    <i name="alphaZ">   1501.27596003 </i>
    <i name="ewald"> -31159.69499418 </i>
    <i name="hartreedc"> -10367.89982018 </i>
    <i name="XCdc">   1246.33883959 </i>
    <i name="pawpsdc">  34040.00696010 </i>
    <i name="pawaedc"> -33495.80632930 </i>
    <i name="eentropy">     -0.00159216 </i>
    <i name="bandstr">   3878.56520907 </i>
    <i name="atom">  40341.65184589 </i>
    <i name="e_fr_energy">   5984.43607886 </i>
    <i name="e_wo_entrp">   5984.43767102 </i>
    <i name="e_0_energy">   5984.43687494 </i>
   </energy>
  </scstep>
  <scstep>
   <time name="dav">   26.80   26.80</time>
   <time name="total">   26.80   26.81</time>
   <energy>
    <i name="e_fr_energy">   1085.65870883 </i>
    <i name="e_wo_entrp">   1085.66502814 </i>
    <i name="e_0_energy">   1085.66186849 </i>
   </energy>
  </scstep>
  <scstep>
   <time name="dav">   28.89   28.90</time>
   <time name="total">   28.89   28.90</time>
   <energy>
    <i name="e_fr_energy">    -91.77261465 </i>
    <i name="e_wo_entrp">    -91.77128472 </i>
    <i name="e_0_energy">    -91.77194969 </i>
   </energy>
  </scstep>
  <scstep>
   <time name="dav">   30.83   30.83</time>
   <time name="total">   30.83   30.84</time>
   <energy>
    <i name="e_fr_energy">   -232.54148711 </i>
    <i name="e_wo_entrp">   -232.54148711 </i>
    <i name="e_0_energy">   -232.54148711 </i>
   </energy>
  </scstep>
  <scstep>
   <time name="dav">   30.23   30.23</time>
   <time name="total">   31.40   31.40</time>
   <energy>
    <i name="e_fr_energy">   -238.63353664 </i>
    <i name="e_wo_entrp">   -238.63353664 </i>
    <i name="e_0_energy">   -238.63353664 </i>
   </energy>
  </scstep>
  <scstep>
   <time name="dav">   34.60   34.62</time>
   <time name="total">   36.33   36.35</time>
   <energy>
    <i name="e_fr_energy">   -204.93622618 </i>
    <i name="e_wo_entrp">   -204.93622618 </i>
    <i name="e_0_energy">   -204.93622618 </i>
   </energy>
  </scstep>
  <scstep>
   <time name="dav">   28.69   28.69</time>
   <time name="total">   30.41   30.41</time>
   <energy>
    <i name="e_fr_energy">   -205.64428322 </i>
    <i name="e_wo_entrp">   -205.64428322 </i>
    <i name="e_0_energy">   -205.64428322 </i>
   </energy>
  </scstep>
  <scstep>
   <time name="dav">   35.39   35.40</time>
   <time name="total">   37.14   37.16</time>
   <energy>
    <i name="e_fr_energy">   -205.73200821 </i>
    <i name="e_wo_entrp">   -205.73200821 </i>
    <i name="e_0_energy">   -205.73200821 </i>
   </energy>
  </scstep>
  <scstep>
   <time name="dav">   33.10   33.12</time>
   <time name="total">   34.83   34.85</time>
   <energy>
    <i name="e_fr_energy">   -205.63512467 </i>
    <i name="e_wo_entrp">   -205.63512467 </i>
    <i name="e_0_energy">   -205.63512467 </i>
   </energy>
  </scstep>
  <scstep>
   <time name="dav">   31.57   31.57</time>
   <time name="total">   33.34   33.34</time>
   <energy>
    <i name="e_fr_energy">   -205.63374126 </i>
    <i name="e_wo_entrp">   -205.63374126 </i>
    <i name="e_0_energy">   -205.63374126 </i>
   </energy>
  </scstep>
  <scstep>
   <time name="dav">   32.33   32.35</time>
   <time name="total">   34.16   34.18</time>
   <energy>
    <i name="e_fr_energy">   -205.63503146 </i>
    <i name="e_wo_entrp">   -205.63503146 </i>
    <i name="e_0_energy">   -205.63503146 </i>
   </energy>
  </scstep>
  <scstep>
   <time name="dav">   33.75   33.76</time>
   <time name="total">   35.52   35.53</time>
   <energy>
    <i name="e_fr_energy">   -205.63541009 </i>
    <i name="e_wo_entrp">   -205.63541009 </i>
    <i name="e_0_energy">   -205.63541009 </i>
   </energy>
  </scstep>
  <scstep>
   <time name="dav">   30.52   30.52</time>
   <time name="total">   32.25   32.25</time>
   <energy>
    <i name="e_fr_energy">   -205.63530644 </i>
    <i name="e_wo_entrp">   -205.63530644 </i>
    <i name="e_0_energy">   -205.63530644 </i>
   </energy>
  </scstep>
  <scstep>
   <time name="dav">   30.30   30.34</time>
   <time name="total">   32.03   32.07</time>
   <energy>
    <i name="e_fr_energy">   -205.63531300 </i>
    <i name="e_wo_entrp">   -205.63531300 </i>
    <i name="e_0_energy">   -205.63531300 </i>
   </energy>
  </scstep>
  <scstep>
   <time name="dav">   32.84   32.88</time>
   <time name="total">   34.59   34.63</time>
   <energy>
    <i name="e_fr_energy">   -205.63530255 </i>
    <i name="e_wo_entrp">   -205.63530255 </i>
    <i name="e_0_energy">   -205.63530255 </i>
   </energy>
  </scstep>
  <scstep>
   <time name="dav">   29.80   29.83</time>
   <time name="total">   31.53   31.57</time>
   <energy>
    <i name="e_fr_energy">   -205.63530050 </i>
    <i name="e_wo_entrp">   -205.63530050 </i>
    <i name="e_0_energy">   -205.63530050 </i>
   </energy>
  </scstep>
  <scstep>
   <time name="dav">   31.90   31.93</time>
   <time name="total">   33.62   33.66</time>
   <energy>
    <i name="e_fr_energy">   -205.63530087 </i>
    <i name="e_wo_entrp">   -205.63530087 </i>
    <i name="e_0_energy">   -205.63530087 </i>
   </energy>
  </scstep>
  <scstep>
   <time name="dav">   30.79   30.79</time>
   <time name="total">   32.54   32.55</time>
   <energy>
    <i name="e_fr_energy">   -205.63530096 </i>
    <i name="e_wo_entrp">   -205.63530096 </i>
    <i name="e_0_energy">   -205.63530096 </i>
   </energy>
  </scstep>
  <scstep>
   <time name="dav">   29.85   29.85</time>
   <time name="total">   31.68   31.68</time>
   <energy>
    <i name="e_fr_energy">   -205.63530096 </i>
    <i name="e_wo_entrp">   -205.63530096 </i>
    <i name="e_0_energy">   -205.63530096 </i>
   </energy>
  </scstep>
  <scstep>
   <time name="dav">   25.93   25.95</time>
   <time name="total">   27.65   27.68</time>
   <energy>
    <i name="e_fr_energy">   -205.63530107 </i>
    <i name="e_wo_entrp">   -205.63530107 </i>
    <i name="e_0_energy">   -205.63530107 </i>
   </energy>
  </scstep>
  <scstep>
   <time name="dav">   24.67   24.67</time>
   <time name="total">   26.44   26.44</time>
   <energy>
    <i name="e_fr_energy">   -205.63530116 </i>
    <i name="e_wo_entrp">   -205.63530116 </i>
    <i name="e_0_energy">   -205.63530116 </i>
   </energy>
  </scstep>
  <scstep>
   <time name="dav">   19.31   19.32</time>
   <time name="total">   21.06   21.08</time>
   <energy>
    <i name="e_fr_energy">   -205.63530114 </i>
    <i name="e_wo_entrp">   -205.63530114 </i>
    <i name="e_0_energy">   -205.63530114 </i>
   </energy>
  </scstep>
  <scstep>
   <time name="dav">   19.29   19.29</time>
   <time name="total">   21.01   21.01</time>
   <energy>
    <i name="e_fr_energy">   -205.63530111 </i>
    <i name="e_wo_entrp">   -205.63530111 </i>
    <i name="e_0_energy">   -205.63530111 </i>
   </energy>
  </scstep>
  <scstep>
   <time name="dav">   19.23   19.23</time>
   <time name="total">   19.90   19.90</time>
   <energy>
    <i name="alphaZ">   1501.27596003 </i>
    <i name="ewald"> -31159.69499418 </i>
    <i name="hartreedc"> -10552.64113050 </i>
    <i name="XCdc">   1264.24306695 </i>
    <i name="pawpsdc">  37323.84035525 </i>
    <i name="pawaedc"> -36731.26509097 </i>
    <i name="eentropy">     -0.00000000 </i>
    <i name="bandstr">  -2193.04531357 </i>
    <i name="atom">  40341.65184589 </i>
    <i name="e_fr_energy">   -205.63530111 </i>
    <i name="e_wo_entrp">   -205.63530111 </i>
    <i name="e_0_energy">   -205.63530111 </i>
   </energy>
  </scstep>
  <structure>
   <crystal>
    <varray name="basis" >
     <v>       7.52655269       0.00000000       0.00000000 </v>
     <v>       0.00000000       7.52655269       0.00000000 </v>
     <v>       0.00000000       0.00000000      11.87779373 </v>
    </varray>
    <i name="volume">    672.86508197 </i>
    <varray name="rec_basis" >
     <v>       0.13286295       0.00000000       0.00000000 </v>
     <v>       0.00000000       0.13286295       0.00000000 </v>
     <v>       0.00000000       0.00000000       0.08419072 </v>
    </varray>
   </crystal>
   <varray name="positions" >
    <v>       0.24860618       0.24860618       0.85968998 </v>
    <v>       0.75139382       0.24860618       0.85968998 </v>
    <v>       0.24860618       0.75139382       0.85968998 </v>
    <v>       0.75139382       0.75139382       0.85968998 </v>
    <v>       0.00000000       0.00000000       0.64103508 </v>
    <v>       0.50000000       0.00000000       0.64199837 </v>
    <v>       0.00000000       0.50000000       0.64199837 </v>
    <v>       0.50000000       0.50000000       0.64303537 </v>
    <v>       0.00000000       0.00000000       0.35896492 </v>
    <v>       0.50000000       0.00000000       0.35800163 </v>
    <v>       0.00000000       0.50000000       0.35800163 </v>
    <v>       0.50000000       0.50000000       0.35696463 </v>
    <v>       0.24860618       0.24860618       0.14031002 </v>
    <v>       0.75139382       0.24860618       0.14031002 </v>
    <v>       0.24860618       0.75139382       0.14031002 </v>
    <v>       0.75139382       0.75139382       0.14031002 </v>
    <v>       0.50000000       0.00000000       0.00000000 </v>
    <v>       0.00000000       0.50000000       0.00000000 </v>
    <v>       0.50000000       0.50000000       0.00000000 </v>
    <v>       0.25055461       0.25055461       0.50000000 </v>
    <v>       0.74944539       0.25055461       0.50000000 </v>
    <v>       0.25055461       0.74944539       0.50000000 </v>
    <v>       0.74944539       0.74944539       0.50000000 </v>
    <v>       0.00000000       0.24934872       0.75014239 </v>
    <v>       0.50000000       0.24947961       0.75161971 </v>
    <v>       0.00000000       0.75065128       0.75014239 </v>
    <v>       0.50000000       0.75052039       0.75161971 </v>
    <v>       0.24934872       0.00000000       0.75014239 </v>
    <v>       0.75065128       0.00000000       0.75014239 </v>
    <v>       0.24947961       0.50000000       0.75161971 </v>
    <v>       0.75052039       0.50000000       0.75161971 </v>
    <v>       0.24934872       0.00000000       0.24985761 </v>
    <v>       0.75065128       0.00000000       0.24985761 </v>
    <v>       0.24947961       0.50000000       0.24838029 </v>
    <v>       0.75052039       0.50000000       0.24838029 </v>
    <v>       0.00000000       0.24934872       0.24985761 </v>
    <v>       0.50000000       0.24947961       0.24838029 </v>
    <v>       0.00000000       0.75065128       0.24985761 </v>
    <v>       0.50000000       0.75052039       0.24838029 </v>
    <v>       0.00000000       0.00000000       0.00000000 </v>
   </varray>
  </structure>
  <varray name="forces" >
   <v>       0.00000512       0.00000512       0.00000725 </v>
   <v>      -0.00000512       0.00000512       0.00000725 </v>
   <v>       0.00000512      -0.00000512       0.00000725 </v>
   <v>      -0.00000512      -0.00000512       0.00000725 </v>
   <v>       0.00000000      -0.00000000       0.00003006 </v>
   <v>      -0.00000000      -0.00000000       0.00002509 </v>
   <v>      -0.00000000       0.00000000       0.00002509 </v>
   <v>      -0.00000000      -0.00000000       0.00001754 </v>
   <v>      -0.00000000       0.00000000      -0.00003006 </v>
   <v>      -0.00000000      -0.00000000      -0.00002509 </v>
   <v>       0.00000000       0.00000000      -0.00002509 </v>
   <v>      -0.00000000      -0.00000000      -0.00001754 </v>
   <v>       0.00000512       0.00000512      -0.00000725 </v>
   <v>      -0.00000512       0.00000512      -0.00000725 </v>
   <v>       0.00000512      -0.00000512      -0.00000725 </v>
   <v>      -0.00000512      -0.00000512      -0.00000725 </v>
   <v>      -0.00000000      -0.00000000      -0.00000000 </v>
   <v>       0.00000000      -0.00000000      -0.00000000 </v>
   <v>       0.00000000       0.00000000       0.00000000 </v>
   <v>      -0.00000070      -0.00000070      -0.00000000 </v>
   <v>       0.00000070      -0.00000070       0.00000000 </v>
   <v>      -0.00000070       0.00000070       0.00000000 </v>
   <v>       0.00000070       0.00000070      -0.00000000 </v>
   <v>       0.00000000       0.00000215      -0.00000180 </v>
   <v>      -0.00000000       0.00000209      -0.00000252 </v>
   <v>      -0.00000000      -0.00000215      -0.00000180 </v>
   <v>       0.00000000      -0.00000209      -0.00000252 </v>
   <v>       0.00000215       0.00000000      -0.00000180 </v>
   <v>      -0.00000215       0.00000000      -0.00000180 </v>
   <v>       0.00000209       0.00000000      -0.00000252 </v>
   <v>      -0.00000209      -0.00000000      -0.00000252 </v>
   <v>       0.00000215      -0.00000000       0.00000180 </v>
   <v>      -0.00000215      -0.00000000       0.00000180 </v>
   <v>       0.00000209       0.00000000       0.00000252 </v>
   <v>      -0.00000209      -0.00000000       0.00000252 </v>
   <v>       0.00000000       0.00000215       0.00000180 </v>
   <v>      -0.00000000       0.00000209       0.00000252 </v>
   <v>      -0.00000000      -0.00000215       0.00000180 </v>
   <v>       0.00000000      -0.00000209       0.00000252 </v>
   <v>      -0.00000000      -0.00000000      -0.00000000 </v>
  </varray>
  <varray name="stress" >
   <v>     139.13822400       0.00000000       0.00000000 </v>
   <v>       0.00000000     139.13822400       0.00000000 </v>
   <v>      -0.00000000       0.00000000     109.37617778 </v>
  </varray>
  <energy>
   <i name="e_fr_energy">   -205.63530111 </i>
   <i name="e_wo_entrp">   -205.63530111 </i>
   <i name="e_0_energy">   -205.63530111 </i>
  </energy>
  <time name="totalsc">  755.22  755.56</time>
 </calculation>
 <calculation>
  <scstep>
   <time name="dav">   22.38   22.38</time>
   <time name="total">   24.11   24.11</time>
   <energy>
    <i name="alphaZ">   1501.27596003 </i>
    <i name="ewald"> -31159.69192786 </i>
    <i name="hartreedc"> -10552.64395053 </i>
    <i name="XCdc">   1264.24306934 </i>
    <i name="pawpsdc">  37323.83973950 </i>
    <i name="pawaedc"> -36731.26448015 </i>
    <i name="eentropy">     -0.00000000 </i>
    <i name="bandstr">  -2193.04555734 </i>
    <i name="atom">  40341.65184589 </i>
    <i name="e_fr_energy">   -205.63530111 </i>
    <i name="e_wo_entrp">   -205.63530111 </i>
    <i name="e_0_energy">   -205.63530111 </i>
   </energy>
  </scstep>
  <scstep>
   <time name="dav">   19.16   19.16</time>
   <time name="total">   20.89   20.89</time>
   <energy>
    <i name="e_fr_energy">   -205.63530111 </i>
    <i name="e_wo_entrp">   -205.63530111 </i>
    <i name="e_0_energy">   -205.63530111 </i>
   </energy>
  </scstep>
  <scstep>
   <time name="dav">   19.08   19.10</time>
   <time name="total">   20.85   20.86</time>
   <energy>
    <i name="e_fr_energy">   -205.63530111 </i>
    <i name="e_wo_entrp">   -205.63530111 </i>
    <i name="e_0_energy">   -205.63530111 </i>
   </energy>
  </scstep>
  <scstep>
   <time name="dav">   19.13   19.15</time>
   <time name="total">   20.86   20.88</time>
   <energy>
    <i name="e_fr_energy">   -205.63530111 </i>
    <i name="e_wo_entrp">   -205.63530111 </i>
    <i name="e_0_energy">   -205.63530111 </i>
   </energy>
  </scstep>
  <scstep>
   <time name="dav">   19.15   19.16</time>
   <time name="total">   19.74   19.74</time>
   <energy>
    <i name="alphaZ">   1501.27596003 </i>
    <i name="ewald"> -31159.69192786 </i>
    <i name="hartreedc"> -10552.64390449 </i>
    <i name="XCdc">   1264.24307561 </i>
    <i name="pawpsdc">  37323.84043558 </i>
    <i name="pawaedc"> -36731.26518337 </i>
    <i name="eentropy">     -0.00000000 </i>
    <i name="bandstr">  -2193.04560251 </i>
    <i name="atom">  40341.65184589 </i>
    <i name="e_fr_energy">   -205.63530111 </i>
    <i name="e_wo_entrp">   -205.63530111 </i>
    <i name="e_0_energy">   -205.63530111 </i>
   </energy>
  </scstep>
  <structure>
   <crystal>
    <varray name="basis" >
     <v>       7.52655269       0.00000000       0.00000000 </v>
     <v>       0.00000000       7.52655269       0.00000000 </v>
     <v>       0.00000000       0.00000000      11.87779373 </v>
    </varray>
    <i name="volume">    672.86508197 </i>
    <varray name="rec_basis" >
     <v>       0.13286295       0.00000000       0.00000000 </v>
     <v>       0.00000000       0.13286295       0.00000000 </v>
     <v>       0.00000000       0.00000000       0.08419072 </v>
    </varray>
   </crystal>
   <varray name="positions" >
    <v>       0.24860621       0.24860621       0.85969001 </v>
    <v>       0.75139379       0.24860621       0.85969001 </v>
    <v>       0.24860621       0.75139379       0.85969001 </v>
    <v>       0.75139379       0.75139379       0.85969001 </v>
    <v>       0.00000000       1.00000000       0.64103520 </v>
    <v>       0.50000000       1.00000000       0.64199847 </v>
    <v>       1.00000000       0.50000000       0.64199847 </v>
    <v>       0.50000000       0.50000000       0.64303544 </v>
    <v>       1.00000000       0.00000000       0.35896480 </v>
    <v>       0.50000000       1.00000000       0.35800153 </v>
    <v>       0.00000000       0.50000000       0.35800153 </v>
    <v>       0.50000000       0.50000000       0.35696456 </v>
    <v>       0.24860621       0.24860621       0.14030999 </v>
    <v>       0.75139379       0.24860621       0.14030999 </v>
    <v>       0.24860621       0.75139379       0.14030999 </v>
    <v>       0.75139379       0.75139379       0.14030999 </v>
    <v>       0.50000000       1.00000000       1.00000000 </v>
    <v>       0.00000000       0.50000000       1.00000000 </v>
    <v>       0.50000000       0.50000000       0.00000000 </v>
    <v>       0.25055461       0.25055461       0.50000000 </v>
    <v>       0.74944539       0.25055461       0.50000000 </v>
    <v>       0.25055461       0.74944539       0.50000000 </v>
    <v>       0.74944539       0.74944539       0.50000000 </v>
    <v>       0.00000000       0.24934873       0.75014238 </v>
    <v>       0.50000000       0.24947963       0.75161970 </v>
    <v>       1.00000000       0.75065127       0.75014238 </v>
    <v>       0.50000000       0.75052037       0.75161970 </v>
    <v>       0.24934873       0.00000000       0.75014238 </v>
    <v>       0.75065127       0.00000000       0.75014238 </v>
    <v>       0.24947963       0.50000000       0.75161970 </v>
    <v>       0.75052037       0.50000000       0.75161970 </v>
    <v>       0.24934873       1.00000000       0.24985762 </v>
    <v>       0.75065127       1.00000000       0.24985762 </v>
    <v>       0.24947963       0.50000000       0.24838030 </v>
    <v>       0.75052037       0.50000000       0.24838030 </v>
    <v>       0.00000000       0.24934873       0.24985762 </v>
    <v>       0.50000000       0.24947963       0.24838030 </v>
    <v>       1.00000000       0.75065127       0.24985762 </v>
    <v>       0.50000000       0.75052037       0.24838030 </v>
    <v>       1.00000000       1.00000000       1.00000000 </v>
   </varray>
  </structure>
  <varray name="forces" >
   <v>      -0.00000547      -0.00000547      -0.00000491 </v>
   <v>       0.00000547      -0.00000547      -0.00000491 </v>
   <v>      -0.00000547       0.00000547      -0.00000491 </v>
   <v>       0.00000547       0.00000547      -0.00000491 </v>
   <v>       0.00000000       0.00000000      -0.00003399 </v>
   <v>      -0.00000000      -0.00000000      -0.00003251 </v>
   <v>      -0.00000000      -0.00000000      -0.00003251 </v>
   <v>       0.00000000      -0.00000000      -0.00003068 </v>
   <v>      -0.00000000       0.00000000       0.00003399 </v>
   <v>       0.00000000      -0.00000000       0.00003251 </v>
   <v>       0.00000000      -0.00000000       0.00003251 </v>
   <v>       0.00000000      -0.00000000       0.00003068 </v>
   <v>      -0.00000547      -0.00000547       0.00000491 </v>
   <v>       0.00000547      -0.00000547       0.00000491 </v>
   <v>      -0.00000547       0.00000547       0.00000491 </v>
   <v>       0.00000547       0.00000547       0.00000491 </v>
   <v>       0.00000000      -0.00000000       0.00000000 </v>
   <v>      -0.00000000       0.00000000       0.00000000 </v>
   <v>      -0.00000000      -0.00000000       0.00000000 </v>
   <v>      -0.00000085      -0.00000085       0.00000000 </v>
   <v>       0.00000085      -0.00000085       0.00000000 </v>
   <v>      -0.00000085       0.00000085       0.00000000 </v>
   <v>       0.00000085       0.00000085       0.00000000 </v>
   <v>       0.00000000       0.00000020       0.00001277 </v>
   <v>      -0.00000000       0.00000082       0.00001014 </v>
   <v>       0.00000000      -0.00000020       0.00001277 </v>
   <v>       0.00000000      -0.00000082       0.00001014 </v>
   <v>       0.00000020      -0.00000000       0.00001277 </v>
   <v>      -0.00000020      -0.00000000       0.00001277 </v>
   <v>       0.00000082       0.00000000       0.00001014 </v>
   <v>      -0.00000082      -0.00000000       0.00001014 </v>
   <v>       0.00000020      -0.00000000      -0.00001277 </v>
   <v>      -0.00000020      -0.00000000      -0.00001277 </v>
   <v>       0.00000082      -0.00000000      -0.00001014 </v>
   <v>      -0.00000082       0.00000000      -0.00001014 </v>
   <v>       0.00000000       0.00000020      -0.00001277 </v>
   <v>      -0.00000000       0.00000082      -0.00001014 </v>
   <v>      -0.00000000      -0.00000020      -0.00001277 </v>
   <v>      -0.00000000      -0.00000082      -0.00001014 </v>
   <v>      -0.00000000      -0.00000000       0.00000000 </v>
  </varray>
  <varray name="stress" >
   <v>     139.13889141       0.00000000       0.00000000 </v>
   <v>       0.00000000     139.13889141       0.00000000 </v>
   <v>       0.00000000       0.00000000     109.37707763 </v>
  </varray>
  <energy>
   <i name="e_fr_energy">   -205.63530111 </i>
   <i name="e_wo_entrp">   -205.63530111 </i>
   <i name="e_0_energy">   -205.63530111 </i>
  </energy>
  <time name="totalsc">  129.70  129.76</time>
 </calculation>
 <calculation>
  <scstep>
   <time name="dav">   22.29   22.29</time>
   <time name="total">   24.04   24.04</time>
   <energy>
    <i name="alphaZ">   1501.27596003 </i>
    <i name="ewald"> -31159.69363786 </i>
    <i name="hartreedc"> -10552.64227056 </i>
    <i name="XCdc">   1264.24307031 </i>
    <i name="pawpsdc">  37323.84057484 </i>
    <i name="pawaedc"> -36731.26532650 </i>
    <i name="eentropy">     -0.00000000 </i>
    <i name="bandstr">  -2193.04551727 </i>
    <i name="atom">  40341.65184589 </i>
    <i name="e_fr_energy">   -205.63530111 </i>
    <i name="e_wo_entrp">   -205.63530111 </i>
    <i name="e_0_energy">   -205.63530111 </i>
   </energy>
  </scstep>
  <scstep>
   <time name="dav">   18.83   18.83</time>
   <time name="total">   20.54   20.54</time>
   <energy>
    <i name="e_fr_energy">   -205.63530111 </i>
    <i name="e_wo_entrp">   -205.63530111 </i>
    <i name="e_0_energy">   -205.63530111 </i>
   </energy>
  </scstep>
  <scstep>
   <time name="dav">   18.75   18.76</time>
   <time name="total">   20.50   20.51</time>
   <energy>
    <i name="e_fr_energy">   -205.63530111 </i>
    <i name="e_wo_entrp">   -205.63530111 </i>
    <i name="e_0_energy">   -205.63530111 </i>
   </energy>
  </scstep>
  <scstep>
   <time name="dav">   18.61   18.61</time>
   <time name="total">   20.33   20.34</time>
   <energy>
    <i name="e_fr_energy">   -205.63530111 </i>
    <i name="e_wo_entrp">   -205.63530111 </i>
    <i name="e_0_energy">   -205.63530111 </i>
   </energy>
  </scstep>
  <scstep>
   <time name="dav">   18.51   18.51</time>
   <time name="total">   19.09   19.10</time>
   <energy>
    <i name="alphaZ">   1501.27596003 </i>
    <i name="ewald"> -31159.69363786 </i>
    <i name="hartreedc"> -10552.64227000 </i>
    <i name="XCdc">   1264.24306659 </i>
    <i name="pawpsdc">  37323.83973645 </i>
    <i name="pawaedc"> -36731.26448163 </i>
    <i name="eentropy">     -0.00000000 </i>
    <i name="bandstr">  -2193.04552058 </i>
    <i name="atom">  40341.65184589 </i>
    <i name="e_fr_energy">   -205.63530111 </i>
    <i name="e_wo_entrp">   -205.63530111 </i>
    <i name="e_0_energy">   -205.63530111 </i>
   </energy>
  </scstep>
  <structure>
   <crystal>
    <varray name="basis" >
     <v>       7.52655269       0.00000000       0.00000000 </v>
     <v>       0.00000000       7.52655269       0.00000000 </v>
     <v>       0.00000000       0.00000000      11.87779373 </v>
    </varray>
    <i name="volume">    672.86508197 </i>
    <varray name="rec_basis" >
     <v>       0.13286295       0.00000000       0.00000000 </v>
     <v>       0.00000000       0.13286295       0.00000000 </v>
     <v>       0.00000000       0.00000000       0.08419072 </v>
    </varray>
   </crystal>
   <varray name="positions" >
    <v>       0.24860620       0.24860620       0.85968999 </v>
    <v>       0.75139380       0.24860620       0.85968999 </v>
    <v>       0.24860620       0.75139380       0.85968999 </v>
    <v>       0.75139380       0.75139380       0.85968999 </v>
    <v>       0.00000000       0.00000000       0.64103513 </v>
    <v>       0.50000000       0.00000000       0.64199841 </v>
    <v>       0.00000000       0.50000000       0.64199841 </v>
    <v>       0.50000000       0.50000000       0.64303540 </v>
    <v>       0.00000000       0.00000000       0.35896487 </v>
    <v>       0.50000000       0.00000000       0.35800159 </v>
    <v>       0.00000000       0.50000000       0.35800159 </v>
    <v>       0.50000000       0.50000000       0.35696460 </v>
    <v>       0.24860620       0.24860620       0.14031001 </v>
    <v>       0.75139380       0.24860620       0.14031001 </v>
    <v>       0.24860620       0.75139380       0.14031001 </v>
    <v>       0.75139380       0.75139380       0.14031001 </v>
    <v>       0.50000000       0.00000000       0.00000000 </v>
    <v>       0.00000000       0.50000000       0.00000000 </v>
    <v>       0.50000000       0.50000000       0.00000000 </v>
    <v>       0.25055461       0.25055461       0.50000000 </v>
    <v>       0.74944539       0.25055461       0.50000000 </v>
    <v>       0.25055461       0.74944539       0.50000000 </v>
    <v>       0.74944539       0.74944539       0.50000000 </v>
    <v>       0.00000000       0.24934872       0.75014239 </v>
    <v>       0.50000000       0.24947962       0.75161971 </v>
    <v>       0.00000000       0.75065128       0.75014239 </v>
    <v>       0.50000000       0.75052038       0.75161971 </v>
    <v>       0.24934872       0.00000000       0.75014239 </v>
    <v>       0.75065128       0.00000000       0.75014239 </v>
    <v>       0.24947962       0.50000000       0.75161971 </v>
    <v>       0.75052038       0.50000000       0.75161971 </v>
    <v>       0.24934872       0.00000000       0.24985761 </v>
    <v>       0.75065128       0.00000000       0.24985761 </v>
    <v>       0.24947962       0.50000000       0.24838029 </v>
    <v>       0.75052038       0.50000000       0.24838029 </v>
    <v>       0.00000000       0.24934872       0.24985761 </v>
    <v>       0.50000000       0.24947962       0.24838029 </v>
    <v>       0.00000000       0.75065128       0.24985761 </v>
    <v>       0.50000000       0.75052038       0.24838029 </v>
    <v>       0.00000000       0.00000000       0.00000000 </v>
   </varray>
  </structure>
  <varray name="forces" >
   <v>       0.00000481       0.00000481       0.00000978 </v>
   <v>      -0.00000481       0.00000481       0.00000978 </v>
   <v>       0.00000481      -0.00000481       0.00000978 </v>
   <v>      -0.00000481      -0.00000481       0.00000978 </v>
   <v>      -0.00000000       0.00000000       0.00003006 </v>
   <v>      -0.00000000       0.00000000       0.00002246 </v>
   <v>      -0.00000000       0.00000000       0.00002246 </v>
   <v>      -0.00000000      -0.00000000       0.00001180 </v>
   <v>       0.00000000      -0.00000000      -0.00003006 </v>
   <v>       0.00000000      -0.00000000      -0.00002246 </v>
   <v>       0.00000000       0.00000000      -0.00002246 </v>
   <v>       0.00000000      -0.00000000      -0.00001180 </v>
   <v>       0.00000481       0.00000481      -0.00000978 </v>
   <v>      -0.00000481       0.00000481      -0.00000978 </v>
   <v>       0.00000481      -0.00000481      -0.00000978 </v>
   <v>      -0.00000481      -0.00000481      -0.00000978 </v>
   <v>      -0.00000000       0.00000000      -0.00000000 </v>
   <v>      -0.00000000      -0.00000000      -0.00000000 </v>
   <v>       0.00000000       0.00000000      -0.00000000 </v>
   <v>      -0.00000112      -0.00000112      -0.00000000 </v>
   <v>       0.00000112      -0.00000112      -0.00000000 </v>
   <v>      -0.00000112       0.00000112      -0.00000000 </v>
   <v>       0.00000112       0.00000112      -0.00000000 </v>
   <v>      -0.00000000       0.00000306       0.00000440 </v>
   <v>      -0.00000000       0.00000337       0.00000274 </v>
   <v>      -0.00000000      -0.00000306       0.00000440 </v>
   <v>      -0.00000000      -0.00000337       0.00000274 </v>
   <v>       0.00000306       0.00000000       0.00000440 </v>
   <v>      -0.00000306      -0.00000000       0.00000440 </v>
   <v>       0.00000337       0.00000000       0.00000274 </v>
   <v>      -0.00000337      -0.00000000       0.00000274 </v>
   <v>       0.00000306       0.00000000      -0.00000440 </v>
   <v>      -0.00000306      -0.00000000      -0.00000440 </v>
   <v>       0.00000337      -0.00000000      -0.00000274 </v>
   <v>      -0.00000337       0.00000000      -0.00000274 </v>
   <v>       0.00000000       0.00000306      -0.00000440 </v>
   <v>      -0.00000000       0.00000337      -0.00000274 </v>
   <v>      -0.00000000      -0.00000306      -0.00000440 </v>
   <v>       0.00000000      -0.00000337      -0.00000274 </v>
   <v>      -0.00000000       0.00000000      -0.00000000 </v>
  </varray>
  <varray name="stress" >
   <v>     139.13874622       0.00000000       0.00000000 </v>
   <v>       0.00000000     139.13874622       0.00000000 </v>
   <v>      -0.00000000       0.00000000     109.37686294 </v>
  </varray>
  <energy>
   <i name="e_fr_energy">   -205.63530111 </i>
   <i name="e_wo_entrp">   -205.63530111 </i>
   <i name="e_0_energy">   -205.63530111 </i>
  </energy>
  <time name="totalsc">  128.37  128.41</time>
 </calculation>
 <calculation>
  <scstep>
   <time name="dav">   18.53   18.53</time>
   <time name="total">   20.29   20.29</time>
   <energy>
    <i name="alphaZ">   1501.27596003 </i>
    <i name="ewald"> -31159.69291846 </i>
    <i name="hartreedc"> -10552.64294724 </i>
    <i name="XCdc">   1264.24306853 </i>
    <i name="pawpsdc">  37323.83969523 </i>
    <i name="pawaedc"> -36731.26444026 </i>
    <i name="eentropy">     -0.00000000 </i>
    <i name="bandstr">  -2193.04556484 </i>
    <i name="atom">  40341.65184589 </i>
    <i name="e_fr_energy">   -205.63530111 </i>
    <i name="e_wo_entrp">   -205.63530111 </i>
    <i name="e_0_energy">   -205.63530111 </i>
   </energy>
  </scstep>
  <scstep>
   <time name="dav">   18.52   18.52</time>
   <time name="total">   20.28   20.29</time>
   <energy>
    <i name="e_fr_energy">   -205.63530111 </i>
    <i name="e_wo_entrp">   -205.63530111 </i>
    <i name="e_0_energy">   -205.63530111 </i>
   </energy>
  </scstep>
  <scstep>
   <time name="dav">   18.50   18.51</time>
   <time name="total">   20.25   20.26</time>
   <energy>
    <i name="e_fr_energy">   -205.63530111 </i>
    <i name="e_wo_entrp">   -205.63530111 </i>
    <i name="e_0_energy">   -205.63530111 </i>
   </energy>
  </scstep>
  <scstep>
   <time name="dav">   18.41   18.42</time>
   <time name="total">   20.25   20.26</time>
   <energy>
    <i name="e_fr_energy">   -205.63530111 </i>
    <i name="e_wo_entrp">   -205.63530111 </i>
    <i name="e_0_energy">   -205.63530111 </i>
   </energy>
  </scstep>
  <scstep>
   <time name="dav">   18.41   18.41</time>
   <time name="total">   19.09   19.09</time>
   <energy>
    <i name="alphaZ">   1501.27596003 </i>
    <i name="ewald"> -31159.69291846 </i>
    <i name="hartreedc"> -10552.64295353 </i>
    <i name="XCdc">   1264.24307028 </i>
    <i name="pawpsdc">  37323.84000542 </i>
    <i name="pawaedc"> -36731.26475262 </i>
    <i name="eentropy">     -0.00000000 </i>
    <i name="bandstr">  -2193.04555811 </i>
    <i name="atom">  40341.65184589 </i>
    <i name="e_fr_energy">   -205.63530111 </i>
    <i name="e_wo_entrp">   -205.63530111 </i>
    <i name="e_0_energy">   -205.63530111 </i>
   </energy>
  </scstep>
  <structure>
   <crystal>
    <varray name="basis" >
     <v>       7.52655269       0.00000000       0.00000000 </v>
     <v>       0.00000000       7.52655269       0.00000000 </v>
     <v>       0.00000000       0.00000000      11.87779373 </v>
    </varray>
    <i name="volume">    672.86508197 </i>
    <varray name="rec_basis" >
     <v>       0.13286295       0.00000000       0.00000000 </v>
     <v>       0.00000000       0.13286295       0.00000000 </v>
     <v>       0.00000000       0.00000000       0.08419072 </v>
    </varray>
   </crystal>
   <varray name="positions" >
    <v>       0.24860620       0.24860620       0.85969000 </v>
    <v>       0.75139380       0.24860620       0.85969000 </v>
    <v>       0.24860620       0.75139380       0.85969000 </v>
    <v>       0.75139380       0.75139380       0.85969000 </v>
    <v>       0.00000000       1.00000000       0.64103516 </v>
    <v>       0.50000000       1.00000000       0.64199844 </v>
    <v>       1.00000000       0.50000000       0.64199844 </v>
    <v>       0.50000000       0.50000000       0.64303542 </v>
    <v>       1.00000000       0.00000000       0.35896484 </v>
    <v>       0.50000000       1.00000000       0.35800156 </v>
    <v>       0.00000000       0.50000000       0.35800156 </v>
    <v>       0.50000000       0.50000000       0.35696458 </v>
    <v>       0.24860620       0.24860620       0.14031000 </v>
    <v>       0.75139380       0.24860620       0.14031000 </v>
    <v>       0.24860620       0.75139380       0.14031000 </v>
    <v>       0.75139380       0.75139380       0.14031000 </v>
    <v>       0.50000000       1.00000000       1.00000000 </v>
    <v>       0.00000000       0.50000000       1.00000000 </v>
    <v>       0.50000000       0.50000000       0.00000000 </v>
    <v>       0.25055461       0.25055461       0.50000000 </v>
    <v>       0.74944539       0.25055461       0.50000000 </v>
    <v>       0.25055461       0.74944539       0.50000000 </v>
    <v>       0.74944539       0.74944539       0.50000000 </v>
    <v>       0.00000000       0.24934873       0.75014238 </v>
    <v>       0.50000000       0.24947962       0.75161971 </v>
    <v>       1.00000000       0.75065127       0.75014238 </v>
    <v>       0.50000000       0.75052038       0.75161971 </v>
    <v>       0.24934873       0.00000000       0.75014238 </v>
    <v>       0.75065127       0.00000000       0.75014238 </v>
    <v>       0.24947962       0.50000000       0.75161971 </v>
    <v>       0.75052038       0.50000000       0.75161971 </v>
    <v>       0.24934873       1.00000000       0.24985762 </v>
    <v>       0.75065127       1.00000000       0.24985762 </v>
    <v>       0.24947962       0.50000000       0.24838029 </v>
    <v>       0.75052038       0.50000000       0.24838029 </v>
    <v>       0.00000000       0.24934873       0.24985762 </v>
    <v>       0.50000000       0.24947962       0.24838029 </v>
    <v>       1.00000000       0.75065127       0.24985762 </v>
    <v>       0.50000000       0.75052038       0.24838029 </v>
    <v>       1.00000000       1.00000000       1.00000000 </v>
   </varray>
  </structure>
  <varray name="forces" >
   <v>      -0.00000307      -0.00000307      -0.00000130 </v>
   <v>       0.00000307      -0.00000307      -0.00000130 </v>
   <v>      -0.00000307       0.00000307      -0.00000130 </v>
   <v>       0.00000307       0.00000307      -0.00000130 </v>
   <v>      -0.00000000      -0.00000000      -0.00001775 </v>
   <v>       0.00000000      -0.00000000      -0.00001751 </v>
   <v>       0.00000000      -0.00000000      -0.00001751 </v>
   <v>      -0.00000000      -0.00000000      -0.00001849 </v>
   <v>       0.00000000       0.00000000       0.00001775 </v>
   <v>       0.00000000      -0.00000000       0.00001751 </v>
   <v>      -0.00000000      -0.00000000       0.00001751 </v>
   <v>       0.00000000      -0.00000000       0.00001849 </v>
   <v>      -0.00000307      -0.00000307       0.00000130 </v>
   <v>       0.00000307      -0.00000307       0.00000130 </v>
   <v>      -0.00000307       0.00000307       0.00000130 </v>
   <v>       0.00000307       0.00000307       0.00000130 </v>
   <v>      -0.00000000      -0.00000000       0.00000000 </v>
   <v>      -0.00000000      -0.00000000       0.00000000 </v>
   <v>       0.00000000       0.00000000       0.00000000 </v>
   <v>      -0.00000101      -0.00000101       0.00000000 </v>
   <v>       0.00000101      -0.00000101       0.00000000 </v>
   <v>      -0.00000101       0.00000101       0.00000000 </v>
   <v>       0.00000101       0.00000101       0.00000000 </v>
   <v>       0.00000000       0.00000154       0.00000814 </v>
   <v>      -0.00000000       0.00000188       0.00000616 </v>
   <v>       0.00000000      -0.00000154       0.00000814 </v>
   <v>       0.00000000      -0.00000188       0.00000616 </v>
   <v>       0.00000154      -0.00000000       0.00000814 </v>
   <v>      -0.00000154      -0.00000000       0.00000814 </v>
   <v>       0.00000188      -0.00000000       0.00000616 </v>
   <v>      -0.00000188       0.00000000       0.00000616 </v>
   <v>       0.00000154      -0.00000000      -0.00000814 </v>
   <v>      -0.00000154       0.00000000      -0.00000814 </v>
   <v>       0.00000188      -0.00000000      -0.00000616 </v>
   <v>      -0.00000188       0.00000000      -0.00000616 </v>
   <v>      -0.00000000       0.00000154      -0.00000814 </v>
   <v>      -0.00000000       0.00000188      -0.00000616 </v>
   <v>       0.00000000      -0.00000154      -0.00000814 </v>
   <v>       0.00000000      -0.00000188      -0.00000616 </v>
   <v>      -0.00000000       0.00000000       0.00000000 </v>
  </varray>
  <varray name="stress" >
   <v>     139.13877976       0.00000000      -0.00000000 </v>
   <v>       0.00000000     139.13877976       0.00000000 </v>
   <v>      -0.00000000       0.00000000     109.37693328 </v>
  </varray>
  <energy>
   <i name="e_fr_energy">   -205.63530111 </i>
   <i name="e_wo_entrp">   -205.63530111 </i>
   <i name="e_0_energy">   -205.63530111 </i>
  </energy>
  <time name="totalsc">  123.96  124.01</time>
 </calculation>
 <calculation>
  <scstep>
   <time name="dav">   18.43   18.45</time>
   <time name="total">   20.27   20.29</time>
   <energy>
    <i name="alphaZ">   1501.27596003 </i>
    <i name="ewald"> -31159.69322256 </i>
    <i name="hartreedc"> -10552.64266482 </i>
    <i name="XCdc">   1264.24306934 </i>
    <i name="pawpsdc">  37323.84001577 </i>
    <i name="pawaedc"> -36731.26476321 </i>
    <i name="eentropy">     -0.00000000 </i>
    <i name="bandstr">  -2193.04554155 </i>
    <i name="atom">  40341.65184589 </i>
    <i name="e_fr_energy">   -205.63530111 </i>
    <i name="e_wo_entrp">   -205.63530111 </i>
    <i name="e_0_energy">   -205.63530111 </i>
   </energy>
  </scstep>
  <scstep>
   <time name="dav">   18.39   18.41</time>
   <time name="total">   20.14   20.16</time>
   <energy>
    <i name="e_fr_energy">   -205.63530111 </i>
    <i name="e_wo_entrp">   -205.63530111 </i>
    <i name="e_0_energy">   -205.63530111 </i>
   </energy>
  </scstep>
  <scstep>
   <time name="dav">   18.35   18.35</time>
   <time name="total">   20.13   20.13</time>
   <energy>
    <i name="e_fr_energy">   -205.63530111 </i>
    <i name="e_wo_entrp">   -205.63530111 </i>
    <i name="e_0_energy">   -205.63530111 </i>
   </energy>
  </scstep>
  <scstep>
   <time name="dav">   18.34   18.35</time>
   <time name="total">   20.09   20.11</time>
   <energy>
    <i name="e_fr_energy">   -205.63530111 </i>
    <i name="e_wo_entrp">   -205.63530111 </i>
    <i name="e_0_energy">   -205.63530111 </i>
   </energy>
  </scstep>
  <scstep>
   <time name="dav">   18.33   18.34</time>
   <time name="total">   19.00   19.01</time>
   <energy>
    <i name="alphaZ">   1501.27596003 </i>
    <i name="ewald"> -31159.69322256 </i>
    <i name="hartreedc"> -10552.64266379 </i>
    <i name="XCdc">   1264.24306856 </i>
    <i name="pawpsdc">  37323.83988104 </i>
    <i name="pawaedc"> -36731.26462745 </i>
    <i name="eentropy">     -0.00000000 </i>
    <i name="bandstr">  -2193.04554282 </i>
    <i name="atom">  40341.65184589 </i>
    <i name="e_fr_energy">   -205.63530111 </i>
    <i name="e_wo_entrp">   -205.63530111 </i>
    <i name="e_0_energy">   -205.63530111 </i>
   </energy>
  </scstep>
  <structure>
   <crystal>
    <varray name="basis" >
     <v>       7.52655269       0.00000000       0.00000000 </v>
     <v>       0.00000000       7.52655269       0.00000000 </v>
     <v>       0.00000000       0.00000000      11.87779373 </v>
    </varray>
    <i name="volume">    672.86508197 </i>
    <varray name="rec_basis" >
     <v>       0.13286295       0.00000000       0.00000000 </v>
     <v>       0.00000000       0.13286295       0.00000000 </v>
     <v>       0.00000000       0.00000000       0.08419072 </v>
    </varray>
   </crystal>
   <varray name="positions" >
    <v>       0.24860620       0.24860620       0.85969000 </v>
    <v>       0.75139380       0.24860620       0.85969000 </v>
    <v>       0.24860620       0.75139380       0.85969000 </v>
    <v>       0.75139380       0.75139380       0.85969000 </v>
    <v>       0.00000000       0.00000000       0.64103515 </v>
    <v>       0.50000000       0.00000000       0.64199843 </v>
    <v>       0.00000000       0.50000000       0.64199843 </v>
    <v>       0.50000000       0.50000000       0.64303541 </v>
    <v>       0.00000000       0.00000000       0.35896485 </v>
    <v>       0.50000000       0.00000000       0.35800157 </v>
    <v>       0.00000000       0.50000000       0.35800157 </v>
    <v>       0.50000000       0.50000000       0.35696459 </v>
    <v>       0.24860620       0.24860620       0.14031000 </v>
    <v>       0.75139380       0.24860620       0.14031000 </v>
    <v>       0.24860620       0.75139380       0.14031000 </v>
    <v>       0.75139380       0.75139380       0.14031000 </v>
    <v>       0.50000000       0.00000000       0.00000000 </v>
    <v>       0.00000000       0.50000000       0.00000000 </v>
    <v>       0.50000000       0.50000000       0.00000000 </v>
    <v>       0.25055461       0.25055461       0.50000000 </v>
    <v>       0.74944539       0.25055461       0.50000000 </v>
    <v>       0.25055461       0.74944539       0.50000000 </v>
    <v>       0.74944539       0.74944539       0.50000000 </v>
    <v>       0.00000000       0.24934873       0.75014238 </v>
    <v>       0.50000000       0.24947962       0.75161971 </v>
    <v>       0.00000000       0.75065127       0.75014238 </v>
    <v>       0.50000000       0.75052038       0.75161971 </v>
    <v>       0.24934873       0.00000000       0.75014238 </v>
    <v>       0.75065127       0.00000000       0.75014238 </v>
    <v>       0.24947962       0.50000000       0.75161971 </v>
    <v>       0.75052038       0.50000000       0.75161971 </v>
    <v>       0.24934873       0.00000000       0.24985762 </v>
    <v>       0.75065127       0.00000000       0.24985762 </v>
    <v>       0.24947962       0.50000000       0.24838029 </v>
    <v>       0.75052038       0.50000000       0.24838029 </v>
    <v>       0.00000000       0.24934873       0.24985762 </v>
    <v>       0.50000000       0.24947962       0.24838029 </v>
    <v>       0.00000000       0.75065127       0.24985762 </v>
    <v>       0.50000000       0.75052038       0.24838029 </v>
    <v>       0.00000000       0.00000000       0.00000000 </v>
   </varray>
  </structure>
  <varray name="forces" >
   <v>       0.00000388       0.00000388       0.00000834 </v>
   <v>      -0.00000388       0.00000388       0.00000834 </v>
   <v>       0.00000388      -0.00000388       0.00000834 </v>
   <v>      -0.00000388      -0.00000388       0.00000834 </v>
   <v>       0.00000000      -0.00000000       0.00002345 </v>
   <v>       0.00000000      -0.00000000       0.00001443 </v>
   <v>      -0.00000000      -0.00000000       0.00001443 </v>
   <v>       0.00000000      -0.00000000       0.00000657 </v>
   <v>      -0.00000000      -0.00000000      -0.00002345 </v>
   <v>       0.00000000      -0.00000000      -0.00001443 </v>
   <v>       0.00000000      -0.00000000      -0.00001443 </v>
   <v>      -0.00000000      -0.00000000      -0.00000657 </v>
   <v>       0.00000388       0.00000388      -0.00000834 </v>
   <v>      -0.00000388       0.00000388      -0.00000834 </v>
   <v>       0.00000388      -0.00000388      -0.00000834 </v>
   <v>      -0.00000388      -0.00000388      -0.00000834 </v>
   <v>       0.00000000      -0.00000000      -0.00000000 </v>
   <v>      -0.00000000      -0.00000000      -0.00000000 </v>
   <v>       0.00000000      -0.00000000      -0.00000000 </v>
   <v>      -0.00000105      -0.00000105      -0.00000000 </v>
   <v>       0.00000105      -0.00000105      -0.00000000 </v>
   <v>      -0.00000105       0.00000105       0.00000000 </v>
   <v>       0.00000105       0.00000105      -0.00000000 </v>
   <v>      -0.00000000       0.00000236       0.00000649 </v>
   <v>       0.00000000       0.00000269       0.00000465 </v>
   <v>      -0.00000000      -0.00000236       0.00000649 </v>
   <v>      -0.00000000      -0.00000269       0.00000465 </v>
   <v>       0.00000236      -0.00000000       0.00000649 </v>
   <v>      -0.00000236      -0.00000000       0.00000649 </v>
   <v>       0.00000269      -0.00000000       0.00000465 </v>
   <v>      -0.00000269      -0.00000000       0.00000465 </v>
   <v>       0.00000236      -0.00000000      -0.00000649 </v>
   <v>      -0.00000236      -0.00000000      -0.00000649 </v>
   <v>       0.00000269      -0.00000000      -0.00000465 </v>
   <v>      -0.00000269      -0.00000000      -0.00000465 </v>
   <v>      -0.00000000       0.00000236      -0.00000649 </v>
   <v>      -0.00000000       0.00000269      -0.00000465 </v>
   <v>      -0.00000000      -0.00000236      -0.00000649 </v>
   <v>      -0.00000000      -0.00000269      -0.00000465 </v>
   <v>       0.00000000      -0.00000000       0.00000000 </v>
  </varray>
  <varray name="stress" >
   <v>     139.13876725       0.00000000       0.00000000 </v>
   <v>       0.00000000     139.13876725       0.00000000 </v>
   <v>       0.00000000       0.00000000     109.37690562 </v>
  </varray>
  <energy>
   <i name="e_fr_energy">   -205.63530111 </i>
   <i name="e_wo_entrp">   -205.63530111 </i>
   <i name="e_0_energy">   -205.63530111 </i>
  </energy>
  <time name="totalsc">  123.89  123.96</time>
 </calculation>
 <calculation>
  <scstep>
   <time name="dav">   18.37   18.37</time>
   <time name="total">   20.22   20.22</time>
   <energy>
    <i name="alphaZ">   1501.27596003 </i>
    <i name="ewald"> -31159.69307411 </i>
    <i name="hartreedc"> -10552.64280431 </i>
    <i name="XCdc">   1264.24306901 </i>
    <i name="pawpsdc">  37323.83987827 </i>
    <i name="pawaedc"> -36731.26462464 </i>
    <i name="eentropy">     -0.00000000 </i>
    <i name="bandstr">  -2193.04555125 </i>
    <i name="atom">  40341.65184589 </i>
    <i name="e_fr_energy">   -205.63530111 </i>
    <i name="e_wo_entrp">   -205.63530111 </i>
    <i name="e_0_energy">   -205.63530111 </i>
   </energy>
  </scstep>
  <scstep>
   <time name="dav">   18.37   18.37</time>
   <time name="total">   20.12   20.13</time>
   <energy>
    <i name="e_fr_energy">   -205.63530111 </i>
    <i name="e_wo_entrp">   -205.63530111 </i>
    <i name="e_0_energy">   -205.63530111 </i>
   </energy>
  </scstep>
  <scstep>
   <time name="dav">   18.34   18.35</time>
   <time name="total">   20.07   20.08</time>
   <energy>
    <i name="e_fr_energy">   -205.63530111 </i>
    <i name="e_wo_entrp">   -205.63530111 </i>
    <i name="e_0_energy">   -205.63530111 </i>
   </energy>
  </scstep>
  <scstep>
   <time name="dav">   18.32   18.34</time>
   <time name="total">   20.08   20.10</time>
   <energy>
    <i name="e_fr_energy">   -205.63530111 </i>
    <i name="e_wo_entrp">   -205.63530111 </i>
    <i name="e_0_energy">   -205.63530111 </i>
   </energy>
  </scstep>
  <scstep>
   <time name="dav">   18.35   18.35</time>
   <time name="total">   18.95   18.95</time>
   <energy>
    <i name="alphaZ">   1501.27596003 </i>
    <i name="ewald"> -31159.69307411 </i>
    <i name="hartreedc"> -10552.64280410 </i>
    <i name="XCdc">   1264.24306937 </i>
    <i name="pawpsdc">  37323.83994390 </i>
    <i name="pawaedc"> -36731.26469090 </i>
    <i name="eentropy">     -0.00000000 </i>
    <i name="bandstr">  -2193.04555119 </i>
    <i name="atom">  40341.65184589 </i>
    <i name="e_fr_energy">   -205.63530111 </i>
    <i name="e_wo_entrp">   -205.63530111 </i>
    <i name="e_0_energy">   -205.63530111 </i>
   </energy>
  </scstep>
  <structure>
   <crystal>
    <varray name="basis" >
     <v>       7.52655269       0.00000000       0.00000000 </v>
     <v>       0.00000000       7.52655269       0.00000000 </v>
     <v>       0.00000000       0.00000000      11.87779373 </v>
    </varray>
    <i name="volume">    672.86508197 </i>
    <varray name="rec_basis" >
     <v>       0.13286295       0.00000000       0.00000000 </v>
     <v>       0.00000000       0.13286295       0.00000000 </v>
     <v>       0.00000000       0.00000000       0.08419072 </v>
    </varray>
   </crystal>
   <varray name="positions" >
    <v>       0.24860620       0.24860620       0.85969000 </v>
    <v>       0.75139380       0.24860620       0.85969000 </v>
    <v>       0.24860620       0.75139380       0.85969000 </v>
    <v>       0.75139380       0.75139380       0.85969000 </v>
    <v>       0.00000000       1.00000000       0.64103515 </v>
    <v>       0.50000000       1.00000000       0.64199843 </v>
    <v>       1.00000000       0.50000000       0.64199843 </v>
    <v>       0.50000000       0.50000000       0.64303541 </v>
    <v>       1.00000000       0.00000000       0.35896485 </v>
    <v>       0.50000000       1.00000000       0.35800157 </v>
    <v>       0.00000000       0.50000000       0.35800157 </v>
    <v>       0.50000000       0.50000000       0.35696459 </v>
    <v>       0.24860620       0.24860620       0.14031000 </v>
    <v>       0.75139380       0.24860620       0.14031000 </v>
    <v>       0.24860620       0.75139380       0.14031000 </v>
    <v>       0.75139380       0.75139380       0.14031000 </v>
    <v>       0.50000000       1.00000000       1.00000000 </v>
    <v>       0.00000000       0.50000000       1.00000000 </v>
    <v>       0.50000000       0.50000000       0.00000000 </v>
    <v>       0.25055461       0.25055461       0.50000000 </v>
    <v>       0.74944539       0.25055461       0.50000000 </v>
    <v>       0.25055461       0.74944539       0.50000000 </v>
    <v>       0.74944539       0.74944539       0.50000000 </v>
    <v>       0.00000000       0.24934873       0.75014238 </v>
    <v>       0.50000000       0.24947962       0.75161971 </v>
    <v>       1.00000000       0.75065127       0.75014238 </v>
    <v>       0.50000000       0.75052038       0.75161971 </v>
    <v>       0.24934873       0.00000000       0.75014238 </v>
    <v>       0.75065127       0.00000000       0.75014238 </v>
    <v>       0.24947962       0.50000000       0.75161971 </v>
    <v>       0.75052038       0.50000000       0.75161971 </v>
    <v>       0.24934873       1.00000000       0.24985762 </v>
    <v>       0.75065127       1.00000000       0.24985762 </v>
    <v>       0.24947962       0.50000000       0.24838029 </v>
    <v>       0.75052038       0.50000000       0.24838029 </v>
    <v>       0.00000000       0.24934873       0.24985762 </v>
    <v>       0.50000000       0.24947962       0.24838029 </v>
[...]
       <r>    7.5350    1.0000 </r>
       <r>    7.5570    1.0000 </r>
       <r>    9.7293    0.0000 </r>
       <r>    9.7708    0.0000 </r>
       <r>    9.7708    0.0000 </r>
       <r>    9.8040    0.0000 </r>
       <r>   10.5697    0.0000 </r>
       <r>   10.6041    0.0000 </r>
       <r>   10.6041    0.0000 </r>
       <r>   10.6308    0.0000 </r>
       <r>   10.8155    0.0000 </r>
       <r>   10.8260    0.0000 </r>
       <r>   10.8456    0.0000 </r>
       <r>   10.8456    0.0000 </r>
       <r>   11.1654    0.0000 </r>
       <r>   11.1919    0.0000 </r>
       <r>   11.2095    0.0000 </r>
       <r>   11.2095    0.0000 </r>
       <r>   11.7351    0.0000 </r>
       <r>   11.7351    0.0000 </r>
       <r>   11.7625    0.0000 </r>
       <r>   11.7962    0.0000 </r>
       <r>   11.8763    0.0000 </r>
       <r>   11.9080    0.0000 </r>
       <r>   11.9080    0.0000 </r>
       <r>   11.9457    0.0000 </r>
       <r>   12.8265    0.0000 </r>
       <r>   12.8265    0.0000 </r>
       <r>   12.8366    0.0000 </r>
       <r>   12.8584    0.0000 </r>
       <r>   13.0471    0.0000 </r>
       <r>   13.0471    0.0000 </r>
       <r>   13.0481    0.0000 </r>
       <r>   13.0761    0.0000 </r>
       <r>   13.4943    0.0000 </r>
       <r>   13.5320    0.0000 </r>
       <r>   13.5320    0.0000 </r>
       <r>   13.5350    0.0000 </r>
       <r>   13.5815    0.0000 </r>
       <r>   13.5816    0.0000 </r>
       <r>   13.6658    0.0000 </r>
       <r>   13.7030    0.0000 </r>
      </set>
     </set>
    </set>
   </array>
  </eigenvalues>
  <separator name="orbital magnetization" >
   <v name="MAGDIPOLOUT">      0.00000000      0.00000000      0.00000000</v>
  </separator>
  <dos>
   <i name="efermi">      7.99010917 </i>
   <total>
    <array>
     <dimension dim="1">gridpoints</dimension>
     <dimension dim="2">spin</dimension>
     <field>energy</field>
     <field>total</field>
     <field>integrated</field>
     <set>
      <set comment="spin 1">
       <r>   -16.7059     0.0000     0.0000 </r>
       <r>   -16.5986     0.0000     0.0000 </r>
       <r>   -16.4913     0.0000     0.0000 </r>
       <r>   -16.3839     0.0000     0.0000 </r>
       <r>   -16.2766     0.0000     0.0000 </r>
       <r>   -16.1693     0.0000     0.0000 </r>
       <r>   -16.0620     0.0000     0.0000 </r>
       <r>   -15.9547     0.0000     0.0000 </r>
       <r>   -15.8474     0.0000     0.0000 </r>
       <r>   -15.7400     0.0000     0.0000 </r>
       <r>   -15.6327     0.0000     0.0000 </r>
       <r>   -15.5254     0.0000     0.0000 </r>
       <r>   -15.4181     0.0000     0.0000 </r>
       <r>   -15.3108     0.3919     0.0421 </r>
       <r>   -15.2035    84.6538     9.1267 </r>
       <r>   -15.0962   143.1744    24.4916 </r>
       <r>   -14.9888   199.2285    45.8719 </r>
       <r>   -14.8815   769.5386   128.4554 </r>
       <r>   -14.7742   292.6074   159.8567 </r>
       <r>   -14.6669     1.3354   160.0000 </r>
       <r>   -14.5596     0.0000   160.0000 </r>
       <r>   -14.4523     0.0000   160.0000 </r>
       <r>   -14.3449     0.0000   160.0000 </r>
       <r>   -14.2376     0.0000   160.0000 </r>
       <r>   -14.1303     0.0000   160.0000 </r>
       <r>   -14.0230     0.0000   160.0000 </r>
       <r>   -13.9157     0.0000   160.0000 </r>
       <r>   -13.8084     0.0000   160.0000 </r>
       <r>   -13.7011     0.0000   160.0000 </r>
       <r>   -13.5937     0.0000   160.0000 </r>
       <r>   -13.4864     0.0000   160.0000 </r>
       <r>   -13.3791     0.0000   160.0000 </r>
       <r>   -13.2718     0.0000   160.0000 </r>
       <r>   -13.1645     0.0000   160.0000 </r>
       <r>   -13.0572     0.0000   160.0000 </r>
       <r>   -12.9498     0.0000   160.0000 </r>
       <r>   -12.8425     0.0000   160.0000 </r>
       <r>   -12.7352     0.0000   160.0000 </r>
       <r>   -12.6279     0.0000   160.0000 </r>
       <r>   -12.5206     0.0000   160.0000 </r>
       <r>   -12.4133     0.0000   160.0000 </r>
       <r>   -12.3059     0.0000   160.0000 </r>
       <r>   -12.1986     0.1802   160.0193 </r>
       <r>   -12.0913     2.1796   160.2532 </r>
       <r>   -11.9840     7.5190   161.0601 </r>
       <r>   -11.8767     7.8436   161.9019 </r>
       <r>   -11.7694     3.2545   162.2511 </r>
       <r>   -11.6621     3.8723   162.6667 </r>
       <r>   -11.5547    12.6685   164.0262 </r>
       <r>   -11.4474    11.2615   165.2348 </r>
       <r>   -11.3401     0.2059   165.2569 </r>
       <r>   -11.2328     5.0445   165.7982 </r>
       <r>   -11.1255     9.1991   166.7854 </r>
       <r>   -11.0182    17.7463   168.6899 </r>
       <r>   -10.9108     5.2518   169.2535 </r>
       <r>   -10.8035     8.6238   170.1789 </r>
       <r>   -10.6962     9.9157   171.2431 </r>
       <r>   -10.5889     0.5158   171.2984 </r>
       <r>   -10.4816    19.2970   173.3693 </r>
       <r>   -10.3743    19.4314   175.4546 </r>
       <r>   -10.2670    15.6783   177.1371 </r>
       <r>   -10.1596    13.1703   178.5505 </r>
       <r>   -10.0523    11.1685   179.7490 </r>
       <r>    -9.9450    28.8639   182.8466 </r>
       <r>    -9.8377    26.8772   185.7309 </r>
       <r>    -9.7304     0.6874   185.8047 </r>
       <r>    -9.6231     8.6205   186.7298 </r>
       <r>    -9.5157    22.5370   189.1484 </r>
       <r>    -9.4084     5.9019   189.7817 </r>
       <r>    -9.3011    10.3050   190.8876 </r>
       <r>    -9.1938     9.2575   191.8811 </r>
       <r>    -9.0865     1.1063   191.9998 </r>
       <r>    -8.9792     0.0017   192.0000 </r>
       <r>    -8.8718     0.0000   192.0000 </r>
       <r>    -8.7645     0.0000   192.0000 </r>
       <r>    -8.6572     0.0000   192.0000 </r>
       <r>    -8.5499     0.0000   192.0000 </r>
       <r>    -8.4426     0.0000   192.0000 </r>
       <r>    -8.3353     0.0000   192.0000 </r>
       <r>    -8.2280     0.0000   192.0000 </r>
       <r>    -8.1206     0.0000   192.0000 </r>
       <r>    -8.0133     0.0000   192.0000 </r>
       <r>    -7.9060     0.0000   192.0000 </r>
       <r>    -7.7987     0.0000   192.0000 </r>
       <r>    -7.6914     0.0000   192.0000 </r>
       <r>    -7.5841     0.0000   192.0000 </r>
       <r>    -7.4767     0.0000   192.0000 </r>
       <r>    -7.3694     0.0000   192.0000 </r>
       <r>    -7.2621     0.0000   192.0000 </r>
       <r>    -7.1548     0.0000   192.0000 </r>
       <r>    -7.0475     0.0000   192.0000 </r>
       <r>    -6.9402     0.0000   192.0000 </r>
       <r>    -6.8329     0.0000   192.0000 </r>
       <r>    -6.7255     0.0000   192.0000 </r>
       <r>    -6.6182     0.0000   192.0000 </r>
       <r>    -6.5109     0.0000   192.0000 </r>
       <r>    -6.4036     0.0000   192.0000 </r>
       <r>    -6.2963     0.0000   192.0000 </r>
       <r>    -6.1890     0.0000   192.0000 </r>
       <r>    -6.0816     0.0000   192.0000 </r>
       <r>    -5.9743     0.0000   192.0000 </r>
       <r>    -5.8670     0.0761   192.0082 </r>
       <r>    -5.7597     0.4249   192.0538 </r>
       <r>    -5.6524     2.0705   192.2760 </r>
       <r>    -5.5451     3.6862   192.6716 </r>
       <r>    -5.4378     2.8533   192.9777 </r>
       <r>    -5.3304     2.3757   193.2327 </r>
       <r>    -5.2231     4.4376   193.7089 </r>
       <r>    -5.1158     8.6980   194.6424 </r>
       <r>    -5.0085     7.8477   195.4845 </r>
       <r>    -4.9012     3.4166   195.8512 </r>
       <r>    -4.7939     6.0856   196.5043 </r>
       <r>    -4.6865     7.5564   197.3152 </r>
       <r>    -4.5792     7.0511   198.0719 </r>
       <r>    -4.4719     9.8498   199.1289 </r>
       <r>    -4.3646     6.7494   199.8532 </r>
       <r>    -4.2573     8.2184   200.7352 </r>
       <r>    -4.1500    12.1874   202.0431 </r>
       <r>    -4.0426     9.2882   203.0399 </r>
       <r>    -3.9353     8.8883   203.9937 </r>
       <r>    -3.8280    12.5661   205.3423 </r>
       <r>    -3.7207     8.2348   206.2260 </r>
       <r>    -3.6134     6.2591   206.8977 </r>
       <r>    -3.5061     5.8506   207.5255 </r>
       <r>    -3.3988     4.5109   208.0096 </r>
       <r>    -3.2914     7.7399   208.8402 </r>
       <r>    -3.1841    12.1041   210.1392 </r>
       <r>    -3.0768    14.4211   211.6868 </r>
       <r>    -2.9695    27.4637   214.6341 </r>
       <r>    -2.8622    26.4080   217.4681 </r>
       <r>    -2.7549    35.4227   221.2695 </r>
       <r>    -2.6475    14.0383   222.7760 </r>
       <r>    -2.5402     6.8625   223.5125 </r>
       <r>    -2.4329    17.5647   225.3974 </r>
       <r>    -2.3256    10.3733   226.5106 </r>
       <r>    -2.2183    11.4568   227.7401 </r>
       <r>    -2.1110    13.9453   229.2367 </r>
       <r>    -2.0037    11.3772   230.4576 </r>
       <r>    -1.8963    13.0287   231.8558 </r>
       <r>    -1.7890     3.2541   232.2050 </r>
       <r>    -1.6817     1.5841   232.3750 </r>
       <r>    -1.5744     7.9608   233.2293 </r>
       <r>    -1.4671     7.6529   234.0506 </r>
       <r>    -1.3598     4.4370   234.5268 </r>
       <r>    -1.2524     2.0650   234.7484 </r>
       <r>    -1.1451     2.0546   234.9689 </r>
       <r>    -1.0378     9.4061   235.9783 </r>
       <r>    -0.9305    11.2121   237.1815 </r>
       <r>    -0.8232     4.7333   237.6895 </r>
       <r>    -0.7159     0.7456   237.7695 </r>
       <r>    -0.6086     2.0988   237.9947 </r>
       <r>    -0.5012     4.0131   238.4254 </r>
       <r>    -0.3939     1.7280   238.6108 </r>
       <r>    -0.2866     5.3776   239.1879 </r>
       <r>    -0.1793     1.1827   239.3149 </r>
       <r>    -0.0720     2.3972   239.5721 </r>
       <r>     0.0353     2.0631   239.7935 </r>
       <r>     0.1427     0.7576   239.8748 </r>
       <r>     0.2500     0.0968   239.8852 </r>
       <r>     0.3573     0.6587   239.9559 </r>
       <r>     0.4646     0.2537   239.9831 </r>
       <r>     0.5719     0.1570   240.0000 </r>
       <r>     0.6792     0.0002   240.0000 </r>
       <r>     0.7866     0.0000   240.0000 </r>
       <r>     0.8939     0.0000   240.0000 </r>
       <r>     1.0012     0.0000   240.0000 </r>
       <r>     1.1085     0.0000   240.0000 </r>
       <r>     1.2158     0.0000   240.0000 </r>
       <r>     1.3231     0.0005   240.0000 </r>
       <r>     1.4304     0.4723   240.0507 </r>
       <r>     1.5378     2.6013   240.3299 </r>
       <r>     1.6451    21.1473   242.5993 </r>
       <r>     1.7524    29.5084   245.7661 </r>
       <r>     1.8597    15.2464   247.4022 </r>
       <r>     1.9670    13.3032   248.8299 </r>
       <r>     2.0743    21.0787   251.0919 </r>
       <r>     2.1817    28.0609   254.1033 </r>
       <r>     2.2890    30.7156   257.3996 </r>
       <r>     2.3963    21.4254   259.6989 </r>
       <r>     2.5036    13.7375   261.1731 </r>
       <r>     2.6109    17.8616   263.0899 </r>
       <r>     2.7182    19.9865   265.2348 </r>
       <r>     2.8255    17.0667   267.0663 </r>
       <r>     2.9329     9.3766   268.0726 </r>
       <r>     3.0402    29.1477   271.2006 </r>
       <r>     3.1475    33.2760   274.7716 </r>
       <r>     3.2548    23.6982   277.3148 </r>
       <r>     3.3621    22.8564   279.7676 </r>
       <r>     3.4694    18.1458   281.7150 </r>
       <r>     3.5768    18.6075   283.7118 </r>
       <r>     3.6841    21.2673   285.9942 </r>
       <r>     3.7914    27.1174   288.9043 </r>
       <r>     3.8987    26.2951   291.7261 </r>
       <r>     4.0060    10.5614   292.8596 </r>
       <r>     4.1133    14.8939   294.4579 </r>
       <r>     4.2206    22.8534   296.9104 </r>
       <r>     4.3280    34.7077   300.6351 </r>
       <r>     4.4353    24.6247   303.2777 </r>
       <r>     4.5426    24.8903   305.9488 </r>
       <r>     4.6499    13.1633   307.3615 </r>
       <r>     4.7572    20.6906   309.5819 </r>
       <r>     4.8645    18.8747   311.6074 </r>
       <r>     4.9719    20.2548   313.7811 </r>
       <r>     5.0792    12.7565   315.1501 </r>
       <r>     5.1865    17.0427   316.9790 </r>
       <r>     5.2938    32.7875   320.4976 </r>
       <r>     5.4011    34.4970   324.1997 </r>
       <r>     5.5084    27.2689   327.1261 </r>
       <r>     5.6158    35.4260   330.9278 </r>
       <r>     5.7231    37.4465   334.9464 </r>
       <r>     5.8304    23.4641   337.4645 </r>
       <r>     5.9377    31.8074   340.8779 </r>
       <r>     6.0450    32.4736   344.3628 </r>
       <r>     6.1523    20.8555   346.6010 </r>
       <r>     6.2596    15.0929   348.2207 </r>
       <r>     6.3670    37.1353   352.2058 </r>
       <r>     6.4743    30.8243   355.5138 </r>
       <r>     6.5816    28.8940   358.6146 </r>
       <r>     6.6889    37.5303   362.6421 </r>
       <r>     6.7962    23.8267   365.1991 </r>
       <r>     6.9035    28.0715   368.2116 </r>
       <r>     7.0109    28.3572   371.2548 </r>
       <r>     7.1182    14.4267   372.8030 </r>
       <r>     7.2255    19.3755   374.8823 </r>
       <r>     7.3328    11.0332   376.0663 </r>
       <r>     7.4401    16.8984   377.8798 </r>
       <r>     7.5474    21.2082   380.1558 </r>
       <r>     7.6547    23.0456   382.6289 </r>
       <r>     7.7621    12.4722   383.9674 </r>
       <r>     7.8694     0.3040   384.0000 </r>
       <r>     7.9767     0.0000   384.0000 </r>
       <r>     8.0840     0.0000   384.0000 </r>
       <r>     8.1913     0.0000   384.0000 </r>
       <r>     8.2986     0.0000   384.0000 </r>
       <r>     8.4060     0.0147   384.0016 </r>
       <r>     8.5133     0.3332   384.0373 </r>
       <r>     8.6206     0.1425   384.0526 </r>
       <r>     8.7279     0.6682   384.1243 </r>
       <r>     8.8352     0.6547   384.1946 </r>
       <r>     8.9425     0.1280   384.2083 </r>
       <r>     9.0499     0.0000   384.2083 </r>
       <r>     9.1572     0.0114   384.2096 </r>
       <r>     9.2645     2.3731   384.4642 </r>
       <r>     9.3718     5.5444   385.0592 </r>
       <r>     9.4791     4.6142   385.5544 </r>
       <r>     9.5864     1.1083   385.6733 </r>
       <r>     9.6937     4.7084   386.1786 </r>
       <r>     9.8011     8.3676   387.0766 </r>
       <r>     9.9084     6.3873   387.7621 </r>
       <r>    10.0157     7.8094   388.6001 </r>
       <r>    10.1230     8.1535   389.4751 </r>
       <r>    10.2303     6.3632   390.1580 </r>
       <r>    10.3376    14.2957   391.6921 </r>
       <r>    10.4450     5.9735   392.3332 </r>
       <r>    10.5523    26.3115   395.1568 </r>
       <r>    10.6596    25.8694   397.9330 </r>
       <r>    10.7669    21.5315   400.2437 </r>
       <r>    10.8742    13.4757   401.6898 </r>
       <r>    10.9815    14.9730   403.2967 </r>
       <r>    11.0888    23.0788   405.7734 </r>
       <r>    11.1962    26.2702   408.5926 </r>
       <r>    11.3035    17.9390   410.5177 </r>
       <r>    11.4108    26.1580   413.3249 </r>
       <r>    11.5181    39.4106   417.5543 </r>
       <r>    11.6254    20.7006   419.7758 </r>
       <r>    11.7327    16.2735   421.5222 </r>
       <r>    11.8401    16.7809   423.3230 </r>
       <r>    11.9474    23.3743   425.8314 </r>
       <r>    12.0547    19.6699   427.9423 </r>
       <r>    12.1620    30.4752   431.2128 </r>
       <r>    12.2693    15.6455   432.8918 </r>
       <r>    12.3766    12.7362   434.2586 </r>
       <r>    12.4839    14.2016   435.7827 </r>
       <r>    12.5913    11.9769   437.0680 </r>
       <r>    12.6986    15.3100   438.7110 </r>
       <r>    12.8059    20.4249   440.9029 </r>
       <r>    12.9132    16.4229   442.6653 </r>
       <r>    13.0205    26.7371   445.5346 </r>
       <r>    13.1278    36.5671   449.4589 </r>
       <r>    13.2352    29.3526   452.6088 </r>
       <r>    13.3425    18.5817   454.6029 </r>
       <r>    13.4498    18.4032   456.5779 </r>
       <r>    13.5571    24.3253   459.1884 </r>
       <r>    13.6644    24.9410   461.8649 </r>
       <r>    13.7717     9.7341   462.9096 </r>
       <r>    13.8791     7.6035   463.7255 </r>
       <r>    13.9864     1.4971   463.8862 </r>
       <r>    14.0937     1.0389   463.9977 </r>
       <r>    14.2010     0.0217   464.0000 </r>
       <r>    14.3083     0.0000   464.0000 </r>
       <r>    14.4156     0.0000   464.0000 </r>
       <r>    14.5229     0.0000   464.0000 </r>
       <r>    14.6303     0.0000   464.0000 </r>
       <r>    14.7376     0.0000   464.0000 </r>
       <r>    14.8449     0.0000   464.0000 </r>
       <r>    14.9522     0.0000   464.0000 </r>
       <r>    15.0595     0.0000   464.0000 </r>
       <r>    15.1668     0.0000   464.0000 </r>
       <r>    15.2742     0.0000   464.0000 </r>
       <r>    15.3815     0.0000   464.0000 </r>
       <r>    15.4888     0.0000   464.0000 </r>
      </set>
     </set>
    </array>
   </total>
  </dos>
 </calculation>
 <structure name="finalpos" >
  <crystal>
   <varray name="basis" >
    <v>       7.52655269       0.00000000       0.00000000 </v>
    <v>       0.00000000       7.52655269       0.00000000 </v>
    <v>       0.00000000       0.00000000      11.87779373 </v>
   </varray>
   <i name="volume">    672.86508197 </i>
   <varray name="rec_basis" >
    <v>       0.13286295       0.00000000       0.00000000 </v>
    <v>       0.00000000       0.13286295       0.00000000 </v>
    <v>       0.00000000       0.00000000       0.08419072 </v>
   </varray>
  </crystal>
  <varray name="positions" >
   <v>       0.24860620       0.24860620       0.85969000 </v>
   <v>       0.75139380       0.24860620       0.85969000 </v>
   <v>       0.24860620       0.75139380       0.85969000 </v>
   <v>       0.75139380       0.75139380       0.85969000 </v>
   <v>       0.00000000       1.00000000       0.64103515 </v>
   <v>       0.50000000       1.00000000       0.64199843 </v>
   <v>       1.00000000       0.50000000       0.64199843 </v>
   <v>       0.50000000       0.50000000       0.64303541 </v>
   <v>       1.00000000       0.00000000       0.35896485 </v>
   <v>       0.50000000       1.00000000       0.35800157 </v>
   <v>       0.00000000       0.50000000       0.35800157 </v>
   <v>       0.50000000       0.50000000       0.35696459 </v>
   <v>       0.24860620       0.24860620       0.14031000 </v>
   <v>       0.75139380       0.24860620       0.14031000 </v>
   <v>       0.24860620       0.75139380       0.14031000 </v>
   <v>       0.75139380       0.75139380       0.14031000 </v>
   <v>       0.50000000       1.00000000       1.00000000 </v>
   <v>       0.00000000       0.50000000       1.00000000 </v>
   <v>       0.50000000       0.50000000       0.00000000 </v>
   <v>       0.25055461       0.25055461       0.50000000 </v>
   <v>       0.74944539       0.25055461       0.50000000 </v>
   <v>       0.25055461       0.74944539       0.50000000 </v>
   <v>       0.74944539       0.74944539       0.50000000 </v>
   <v>       0.00000000       0.24934873       0.75014238 </v>
   <v>       0.50000000       0.24947962       0.75161971 </v>
   <v>       1.00000000       0.75065127       0.75014238 </v>
   <v>       0.50000000       0.75052038       0.75161971 </v>
   <v>       0.24934873       0.00000000       0.75014238 </v>
   <v>       0.75065127       0.00000000       0.75014238 </v>
   <v>       0.24947962       0.50000000       0.75161971 </v>
   <v>       0.75052038       0.50000000       0.75161971 </v>
   <v>       0.24934873       1.00000000       0.24985762 </v>
   <v>       0.75065127       1.00000000       0.24985762 </v>
   <v>       0.24947962       0.50000000       0.24838029 </v>
   <v>       0.75052038       0.50000000       0.24838029 </v>
   <v>       0.00000000       0.24934873       0.24985762 </v>
   <v>       0.50000000       0.24947962       0.24838029 </v>
   <v>       1.00000000       0.75065127       0.24985762 </v>
   <v>       0.50000000       0.75052038       0.24838029 </v>
   <v>       1.00000000       1.00000000       1.00000000 </v>
  </varray>
 </structure>
</modeling>
