unknown system                          
           1
     7.526553    0.000000    0.000000
     0.000000    7.526553    0.000000
     0.000000    0.000000   11.877794
   Bi   Se   O    S 
    16     7    16     1
Direct configuration=     1
   0.24860618  0.24860618  0.85968998
   0.75139382  0.24860618  0.85968998
   0.24860618  0.75139382  0.85968998
   0.75139382  0.75139382  0.85968998
   0.00000000  0.00000000  0.64103508
   0.50000000  0.00000000  0.64199837
   0.00000000  0.50000000  0.64199837
   0.50000000  0.50000000  0.64303537
   0.00000000  0.00000000  0.35896492
   0.50000000  0.00000000  0.35800163
   0.00000000  0.50000000  0.35800163
   0.50000000  0.50000000  0.35696463
   0.24860618  0.24860618  0.14031002
   0.75139382  0.24860618  0.14031002
   0.24860618  0.75139382  0.14031002
   0.75139382  0.75139382  0.14031002
   0.50000000  0.00000000  0.00000000
   0.00000000  0.50000000  0.00000000
   0.50000000  0.50000000  0.00000000
   0.25055461  0.25055461  0.50000000
   0.74944539  0.25055461  0.50000000
   0.25055461  0.74944539  0.50000000
   0.74944539  0.74944539  0.50000000
   0.00000000  0.24934872  0.75014239
   0.50000000  0.24947961  0.75161971
   0.00000000  0.75065128  0.75014239
   0.50000000  0.75052039  0.75161971
   0.24934872  0.00000000  0.75014239
   0.75065128  0.00000000  0.75014239
   0.24947961  0.50000000  0.75161971
   0.75052039  0.50000000  0.75161971
   0.24934872  0.00000000  0.24985761
   0.75065128  0.00000000  0.24985761
   0.24947961  0.50000000  0.24838029
   0.75052039  0.50000000  0.24838029
   0.00000000  0.24934872  0.24985761
   0.50000000  0.24947961  0.24838029
   0.00000000  0.75065128  0.24985761
   0.50000000  0.75052039  0.24838029
   0.00000000  0.00000000  0.00000000
Direct configuration=     2
   0.24860621  0.24860621  0.85969001
   0.75139379  0.24860621  0.85969001
   0.24860621  0.75139379  0.85969001
   0.75139379  0.75139379  0.85969001
   0.00000000  1.00000000  0.64103520
   0.50000000  1.00000000  0.64199847
   1.00000000  0.50000000  0.64199847
   0.50000000  0.50000000  0.64303544
   1.00000000  0.00000000  0.35896480
   0.50000000  1.00000000  0.35800153
   0.00000000  0.50000000  0.35800153
   0.50000000  0.50000000  0.35696456
   0.24860621  0.24860621  0.14030999
   0.75139379  0.24860621  0.14030999
   0.24860621  0.75139379  0.14030999
   0.75139379  0.75139379  0.14030999
   0.50000000  1.00000000  1.00000000
   0.00000000  0.50000000  1.00000000
   0.50000000  0.50000000  0.00000000
   0.25055461  0.25055461  0.50000000
   0.74944539  0.25055461  0.50000000
   0.25055461  0.74944539  0.50000000
   0.74944539  0.74944539  0.50000000
   0.00000000  0.24934873  0.75014238
   0.50000000  0.24947963  0.75161970
   1.00000000  0.75065127  0.75014238
   0.50000000  0.75052037  0.75161970
   0.24934873  0.00000000  0.75014238
   0.75065127  0.00000000  0.75014238
   0.24947963  0.50000000  0.75161970
   0.75052037  0.50000000  0.75161970
   0.24934873  1.00000000  0.24985762
   0.75065127  1.00000000  0.24985762
   0.24947963  0.50000000  0.24838030
   0.75052037  0.50000000  0.24838030
   0.00000000  0.24934873  0.24985762
   0.50000000  0.24947963  0.24838030
   1.00000000  0.75065127  0.24985762
   0.50000000  0.75052037  0.24838030
   1.00000000  1.00000000  1.00000000
Direct configuration=     3
   0.24860620  0.24860620  0.85968999
   0.75139380  0.24860620  0.85968999
   0.24860620  0.75139380  0.85968999
   0.75139380  0.75139380  0.85968999
   0.00000000  0.00000000  0.64103513
   0.50000000  0.00000000  0.64199841
   0.00000000  0.50000000  0.64199841
   0.50000000  0.50000000  0.64303540
   0.00000000  0.00000000  0.35896487
   0.50000000  0.00000000  0.35800159
   0.00000000  0.50000000  0.35800159
   0.50000000  0.50000000  0.35696460
   0.24860620  0.24860620  0.14031001
   0.75139380  0.24860620  0.14031001
   0.24860620  0.75139380  0.14031001
   0.75139380  0.75139380  0.14031001
   0.50000000  0.00000000  0.00000000
   0.00000000  0.50000000  0.00000000
   0.50000000  0.50000000  0.00000000
   0.25055461  0.25055461  0.50000000
   0.74944539  0.25055461  0.50000000
   0.25055461  0.74944539  0.50000000
   0.74944539  0.74944539  0.50000000
   0.00000000  0.24934872  0.75014239
   0.50000000  0.24947962  0.75161971
   0.00000000  0.75065128  0.75014239
   0.50000000  0.75052038  0.75161971
   0.24934872  0.00000000  0.75014239
   0.75065128  0.00000000  0.75014239
   0.24947962  0.50000000  0.75161971
   0.75052038  0.50000000  0.75161971
   0.24934872  0.00000000  0.24985761
   0.75065128  0.00000000  0.24985761
   0.24947962  0.50000000  0.24838029
   0.75052038  0.50000000  0.24838029
   0.00000000  0.24934872  0.24985761
   0.50000000  0.24947962  0.24838029
   0.00000000  0.75065128  0.24985761
   0.50000000  0.75052038  0.24838029
   0.00000000  0.00000000  0.00000000
Direct configuration=     4
   0.24860620  0.24860620  0.85969000
   0.75139380  0.24860620  0.85969000
   0.24860620  0.75139380  0.85969000
   0.75139380  0.75139380  0.85969000
   0.00000000  1.00000000  0.64103516
   0.50000000  1.00000000  0.64199844
   1.00000000  0.50000000  0.64199844
   0.50000000  0.50000000  0.64303542
   1.00000000  0.00000000  0.35896484
   0.50000000  1.00000000  0.35800156
   0.00000000  0.50000000  0.35800156
   0.50000000  0.50000000  0.35696458
   0.24860620  0.24860620  0.14031000
   0.75139380  0.24860620  0.14031000
   0.24860620  0.75139380  0.14031000
   0.75139380  0.75139380  0.14031000
   0.50000000  1.00000000  1.00000000
   0.00000000  0.50000000  1.00000000
   0.50000000  0.50000000  0.00000000
   0.25055461  0.25055461  0.50000000
   0.74944539  0.25055461  0.50000000
   0.25055461  0.74944539  0.50000000
   0.74944539  0.74944539  0.50000000
   0.00000000  0.24934873  0.75014238
   0.50000000  0.24947962  0.75161971
   1.00000000  0.75065127  0.75014238
   0.50000000  0.75052038  0.75161971
   0.24934873  0.00000000  0.75014238
   0.75065127  0.00000000  0.75014238
   0.24947962  0.50000000  0.75161971
   0.75052038  0.50000000  0.75161971
   0.24934873  1.00000000  0.24985762
   0.75065127  1.00000000  0.24985762
   0.24947962  0.50000000  0.24838029
   0.75052038  0.50000000  0.24838029
   0.00000000  0.24934873  0.24985762
   0.50000000  0.24947962  0.24838029
   1.00000000  0.75065127  0.24985762
   0.50000000  0.75052038  0.24838029
   1.00000000  1.00000000  1.00000000
Direct configuration=     5
   0.24860620  0.24860620  0.85969000
   0.75139380  0.24860620  0.85969000
   0.24860620  0.75139380  0.85969000
   0.75139380  0.75139380  0.85969000
   0.00000000  0.00000000  0.64103515
   0.50000000  0.00000000  0.64199843
   0.00000000  0.50000000  0.64199843
   0.50000000  0.50000000  0.64303541
   0.00000000  0.00000000  0.35896485
   0.50000000  0.00000000  0.35800157
   0.00000000  0.50000000  0.35800157
   0.50000000  0.50000000  0.35696459
   0.24860620  0.24860620  0.14031000
   0.75139380  0.24860620  0.14031000
   0.24860620  0.75139380  0.14031000
   0.75139380  0.75139380  0.14031000
   0.50000000  0.00000000  0.00000000
   0.00000000  0.50000000  0.00000000
   0.50000000  0.50000000  0.00000000
   0.25055461  0.25055461  0.50000000
   0.74944539  0.25055461  0.50000000
   0.25055461  0.74944539  0.50000000
   0.74944539  0.74944539  0.50000000
   0.00000000  0.24934873  0.75014238
   0.50000000  0.24947962  0.75161971
   0.00000000  0.75065127  0.75014238
   0.50000000  0.75052038  0.75161971
   0.24934873  0.00000000  0.75014238
   0.75065127  0.00000000  0.75014238
   0.24947962  0.50000000  0.75161971
   0.75052038  0.50000000  0.75161971
   0.24934873  0.00000000  0.24985762
   0.75065127  0.00000000  0.24985762
   0.24947962  0.50000000  0.24838029
   0.75052038  0.50000000  0.24838029
   0.00000000  0.24934873  0.24985762
   0.50000000  0.24947962  0.24838029
   0.00000000  0.75065127  0.24985762
   0.50000000  0.75052038  0.24838029
   0.00000000  0.00000000  0.00000000
Direct configuration=     6
   0.24860620  0.24860620  0.85969000
   0.75139380  0.24860620  0.85969000
   0.24860620  0.75139380  0.85969000
   0.75139380  0.75139380  0.85969000
   0.00000000  1.00000000  0.64103515
   0.50000000  1.00000000  0.64199843
   1.00000000  0.50000000  0.64199843
   0.50000000  0.50000000  0.64303541
   1.00000000  0.00000000  0.35896485
   0.50000000  1.00000000  0.35800157
   0.00000000  0.50000000  0.35800157
   0.50000000  0.50000000  0.35696459
   0.24860620  0.24860620  0.14031000
   0.75139380  0.24860620  0.14031000
   0.24860620  0.75139380  0.14031000
   0.75139380  0.75139380  0.14031000
   0.50000000  1.00000000  1.00000000
   0.00000000  0.50000000  1.00000000
   0.50000000  0.50000000  0.00000000
   0.25055461  0.25055461  0.50000000
   0.74944539  0.25055461  0.50000000
   0.25055461  0.74944539  0.50000000
   0.74944539  0.74944539  0.50000000
   0.00000000  0.24934873  0.75014238
   0.50000000  0.24947962  0.75161971
   1.00000000  0.75065127  0.75014238
   0.50000000  0.75052038  0.75161971
   0.24934873  0.00000000  0.75014238
   0.75065127  0.00000000  0.75014238
   0.24947962  0.50000000  0.75161971
   0.75052038  0.50000000  0.75161971
   0.24934873  1.00000000  0.24985762
   0.75065127  1.00000000  0.24985762
   0.24947962  0.50000000  0.24838029
   0.75052038  0.50000000  0.24838029
   0.00000000  0.24934873  0.24985762
   0.50000000  0.24947962  0.24838029
   1.00000000  0.75065127  0.24985762
   0.50000000  0.75052038  0.24838029
   1.00000000  1.00000000  1.00000000
