  40  40   0   0
  0.2138722E+02  0.8153766E-09  0.8153766E-09  0.1286761E-08  0.5000000E-15
  1.000000000000000E-004
  CAR 
 unknown system                          
     11.06805200    -19.55105363  301      5.33950986      1.00000000
    -19.551  0.0000E+00  0.0000E+00
    -19.449  0.0000E+00  0.0000E+00
    -19.347  0.0000E+00  0.0000E+00
    -19.245  0.0000E+00  0.0000E+00
    -19.143  0.0000E+00  0.0000E+00
    -19.041  0.0000E+00  0.0000E+00
    -18.939  0.0000E+00  0.0000E+00
    -18.837  0.0000E+00  0.0000E+00
    -18.735  0.0000E+00  0.0000E+00
    -18.632  0.0000E+00  0.0000E+00
    -18.530  0.0000E+00  0.0000E+00
    -18.428  0.3017E-14  0.3079E-15
    -18.326  0.4103E-06  0.4188E-07
    -18.224  0.2130E-01  0.2174E-02
    -18.122  0.1257E+01  0.1305E+00
    -18.020  0.4828E+01  0.6233E+00
    -17.918  0.8345E+01  0.1475E+01
    -17.816  0.1221E+01  0.1600E+01
    -17.714  0.4402E-02  0.1600E+01
    -17.612  0.1340E-07  0.1600E+01
    -17.510  0.0000E+00  0.1600E+01
    -17.408  0.0000E+00  0.1600E+01
    -17.306  0.0000E+00  0.1600E+01
    -17.204  0.0000E+00  0.1600E+01
    -17.102  0.0000E+00  0.1600E+01
    -16.999  0.0000E+00  0.1600E+01
    -16.897  0.0000E+00  0.1600E+01
    -16.795  0.0000E+00  0.1600E+01
    -16.693  0.0000E+00  0.1600E+01
    -16.591  0.0000E+00  0.1600E+01
    -16.489  0.0000E+00  0.1600E+01
    -16.387  0.0000E+00  0.1600E+01
    -16.285  0.0000E+00  0.1600E+01
    -16.183  0.0000E+00  0.1600E+01
    -16.081  0.0000E+00  0.1600E+01
    -15.979  0.0000E+00  0.1600E+01
    -15.877  0.0000E+00  0.1600E+01
    -15.775  0.0000E+00  0.1600E+01
    -15.673  0.0000E+00  0.1600E+01
    -15.571  0.0000E+00  0.1600E+01
    -15.469  0.0000E+00  0.1600E+01
    -15.366  0.0000E+00  0.1600E+01
    -15.264  0.0000E+00  0.1600E+01
    -15.162  0.0000E+00  0.1600E+01
    -15.060  0.0000E+00  0.1600E+01
    -14.958  0.0000E+00  0.1600E+01
    -14.856  0.0000E+00  0.1600E+01
    -14.754  0.0000E+00  0.1600E+01
    -14.652  0.0000E+00  0.1600E+01
    -14.550  0.0000E+00  0.1600E+01
    -14.448  0.0000E+00  0.1600E+01
    -14.346  0.0000E+00  0.1600E+01
    -14.244  0.0000E+00  0.1600E+01
    -14.142  0.3213E-15  0.1600E+01
    -14.040  0.2667E-07  0.1600E+01
    -13.938  0.7767E-03  0.1600E+01
    -13.835  0.3084E-01  0.1603E+01
    -13.733  0.1159E+00  0.1615E+01
    -13.631  0.9185E-01  0.1624E+01
    -13.529  0.1038E+00  0.1635E+01
    -13.427  0.1092E+00  0.1646E+01
    -13.325  0.9291E-01  0.1656E+01
    -13.223  0.6724E-01  0.1663E+01
    -13.121  0.2325E+00  0.1686E+01
    -13.019  0.1325E+00  0.1700E+01
    -12.917  0.9387E-01  0.1709E+01
    -12.815  0.1134E+00  0.1721E+01
    -12.713  0.3596E+00  0.1758E+01
    -12.611  0.1992E+00  0.1778E+01
    -12.509  0.2173E+00  0.1800E+01
    -12.407  0.4211E+00  0.1843E+01
    -12.305  0.1510E+00  0.1859E+01
    -12.202  0.1326E+00  0.1872E+01
    -12.100  0.2407E+00  0.1897E+01
    -11.998  0.1238E+00  0.1909E+01
    -11.896  0.1007E+00  0.1920E+01
    -11.794  0.4519E-02  0.1920E+01
    -11.692  0.1273E-05  0.1920E+01
    -11.590  0.1591E-12  0.1920E+01
    -11.488  0.0000E+00  0.1920E+01
    -11.386  0.0000E+00  0.1920E+01
    -11.284  0.0000E+00  0.1920E+01
    -11.182  0.0000E+00  0.1920E+01
    -11.080  0.0000E+00  0.1920E+01
    -10.978  0.0000E+00  0.1920E+01
    -10.876  0.0000E+00  0.1920E+01
    -10.774  0.0000E+00  0.1920E+01
    -10.672  0.0000E+00  0.1920E+01
    -10.569  0.0000E+00  0.1920E+01
    -10.467  0.0000E+00  0.1920E+01
    -10.365  0.0000E+00  0.1920E+01
    -10.263  0.0000E+00  0.1920E+01
    -10.161  0.0000E+00  0.1920E+01
    -10.059  0.0000E+00  0.1920E+01
     -9.957  0.0000E+00  0.1920E+01
     -9.855  0.0000E+00  0.1920E+01
     -9.753  0.0000E+00  0.1920E+01
     -9.651  0.0000E+00  0.1920E+01
     -9.549  0.0000E+00  0.1920E+01
     -9.447  0.0000E+00  0.1920E+01
     -9.345  0.0000E+00  0.1920E+01
     -9.243  0.0000E+00  0.1920E+01
     -9.141  0.0000E+00  0.1920E+01
     -9.038  0.0000E+00  0.1920E+01
     -8.936  0.0000E+00  0.1920E+01
     -8.834  0.0000E+00  0.1920E+01
     -8.732  0.0000E+00  0.1920E+01
     -8.630  0.0000E+00  0.1920E+01
     -8.528  0.0000E+00  0.1920E+01
     -8.426  0.0000E+00  0.1920E+01
     -8.324  0.0000E+00  0.1920E+01
     -8.222  0.0000E+00  0.1920E+01
     -8.120  0.0000E+00  0.1920E+01
     -8.018  0.0000E+00  0.1920E+01
     -7.916  0.0000E+00  0.1920E+01
     -7.814  0.0000E+00  0.1920E+01
     -7.712  0.0000E+00  0.1920E+01
     -7.610  0.0000E+00  0.1920E+01
     -7.508  0.0000E+00  0.1920E+01
     -7.405  0.0000E+00  0.1920E+01
     -7.303  0.0000E+00  0.1920E+01
     -7.201  0.6919E-11  0.1920E+01
     -7.099  0.5089E-05  0.1920E+01
     -6.997  0.2256E-02  0.1920E+01
     -6.895  0.2837E-01  0.1923E+01
     -6.793  0.6969E-01  0.1930E+01
     -6.691  0.6773E-01  0.1937E+01
     -6.589  0.5487E-01  0.1943E+01
     -6.487  0.8719E-01  0.1952E+01
     -6.385  0.7312E-01  0.1959E+01
     -6.283  0.9904E-01  0.1969E+01
     -6.181  0.1326E+00  0.1983E+01
     -6.079  0.1811E+00  0.2001E+01
     -5.977  0.1581E+00  0.2017E+01
     -5.875  0.1886E+00  0.2037E+01
     -5.772  0.2174E+00  0.2059E+01
     -5.670  0.2597E+00  0.2085E+01
     -5.568  0.2544E+00  0.2111E+01
     -5.466  0.3525E+00  0.2147E+01
     -5.364  0.3174E+00  0.2180E+01
     -5.262  0.4193E+00  0.2222E+01
     -5.160  0.2590E+00  0.2249E+01
     -5.058  0.1115E+00  0.2260E+01
     -4.956  0.2449E+00  0.2285E+01
     -4.854  0.1647E+00  0.2302E+01
     -4.752  0.7732E-01  0.2310E+01
     -4.650  0.1449E+00  0.2325E+01
     -4.548  0.1248E+00  0.2337E+01
     -4.446  0.9454E-01  0.2347E+01
     -4.344  0.3517E-02  0.2348E+01
     -4.242  0.1647E-01  0.2349E+01
     -4.139  0.1323E+00  0.2363E+01
     -4.037  0.9278E-01  0.2372E+01
     -3.935  0.5342E-01  0.2378E+01
     -3.833  0.2594E-01  0.2380E+01
     -3.731  0.4349E-01  0.2385E+01
     -3.629  0.6956E-01  0.2392E+01
     -3.527  0.2758E-01  0.2395E+01
     -3.425  0.3655E-01  0.2398E+01
     -3.323  0.7910E-02  0.2399E+01
     -3.221  0.7056E-02  0.2400E+01
     -3.119  0.1249E-02  0.2400E+01
     -3.017  0.1342E-05  0.2400E+01
     -2.915  0.6334E-12  0.2400E+01
     -2.813  0.0000E+00  0.2400E+01
     -2.711  0.0000E+00  0.2400E+01
     -2.608  0.0000E+00  0.2400E+01
     -2.506  0.0000E+00  0.2400E+01
     -2.404  0.0000E+00  0.2400E+01
     -2.302  0.0000E+00  0.2400E+01
     -2.200  0.0000E+00  0.2400E+01
     -2.098  0.0000E+00  0.2400E+01
     -1.996  0.0000E+00  0.2400E+01
     -1.894  0.0000E+00  0.2400E+01
     -1.792  0.0000E+00  0.2400E+01
     -1.690  0.0000E+00  0.2400E+01
     -1.588  0.0000E+00  0.2400E+01
     -1.486  0.0000E+00  0.2400E+01
     -1.384  0.0000E+00  0.2400E+01
     -1.282  0.0000E+00  0.2400E+01
     -1.180  0.0000E+00  0.2400E+01
     -1.078  0.0000E+00  0.2400E+01
     -0.975  0.0000E+00  0.2400E+01
     -0.873  0.0000E+00  0.2400E+01
     -0.771  0.0000E+00  0.2400E+01
     -0.669  0.1819E-12  0.2400E+01
     -0.567  0.1124E-05  0.2400E+01
     -0.465  0.3443E-02  0.2400E+01
     -0.363  0.5859E-01  0.2406E+01
     -0.261  0.1796E+00  0.2425E+01
     -0.159  0.3196E+00  0.2457E+01
     -0.057  0.4274E+00  0.2501E+01
      0.045  0.2681E+00  0.2528E+01
      0.147  0.1897E+00  0.2548E+01
      0.249  0.1925E+00  0.2567E+01
      0.351  0.2158E+00  0.2589E+01
      0.453  0.2013E+00  0.2610E+01
      0.555  0.2170E+00  0.2632E+01
      0.658  0.2448E+00  0.2657E+01
      0.760  0.2298E+00  0.2680E+01
      0.862  0.1660E+00  0.2697E+01
      0.964  0.1232E+00  0.2710E+01
      1.066  0.2229E+00  0.2733E+01
      1.168  0.3784E+00  0.2771E+01
      1.270  0.2297E+00  0.2795E+01
      1.372  0.1759E+00  0.2813E+01
      1.474  0.2468E+00  0.2838E+01
      1.576  0.4381E+00  0.2883E+01
      1.678  0.4171E+00  0.2925E+01
      1.780  0.4449E+00  0.2971E+01
      1.882  0.2835E+00  0.3000E+01
      1.984  0.2599E+00  0.3026E+01
      2.086  0.2580E+00  0.3052E+01
      2.189  0.2998E+00  0.3083E+01
      2.291  0.1632E+00  0.3100E+01
      2.393  0.2391E+00  0.3124E+01
      2.495  0.4218E+00  0.3167E+01
      2.597  0.3933E+00  0.3207E+01
      2.699  0.2274E+00  0.3230E+01
      2.801  0.4017E+00  0.3271E+01
      2.903  0.3338E+00  0.3306E+01
      3.005  0.2034E+00  0.3326E+01
      3.107  0.1685E+00  0.3343E+01
      3.209  0.1786E+00  0.3362E+01
      3.311  0.1496E+00  0.3377E+01
      3.413  0.5476E-01  0.3383E+01
      3.515  0.1388E+00  0.3397E+01
      3.617  0.1698E+00  0.3414E+01
      3.719  0.1384E+00  0.3428E+01
      3.822  0.1638E+00  0.3445E+01
      3.924  0.1607E+00  0.3461E+01
      4.026  0.3327E+00  0.3495E+01
      4.128  0.4545E+00  0.3542E+01
      4.230  0.5349E+00  0.3596E+01
      4.332  0.5098E+00  0.3648E+01
      4.434  0.4881E+00  0.3698E+01
      4.536  0.3382E+00  0.3733E+01
      4.638  0.2129E+00  0.3754E+01
      4.740  0.1969E+00  0.3774E+01
      4.842  0.2911E+00  0.3804E+01
      4.944  0.1596E+00  0.3820E+01
      5.046  0.2770E-01  0.3823E+01
      5.148  0.6547E-01  0.3830E+01
      5.250  0.7613E-01  0.3838E+01
      5.352  0.2420E-01  0.3840E+01
      5.455  0.7989E-02  0.3841E+01
      5.557  0.2591E-02  0.3841E+01
      5.659  0.4412E-02  0.3842E+01
      5.761  0.7681E-02  0.3842E+01
      5.863  0.3409E-03  0.3843E+01
      5.965  0.6496E-02  0.3843E+01
      6.067  0.7519E-02  0.3844E+01
      6.169  0.3278E-01  0.3847E+01
      6.271  0.3439E-01  0.3851E+01
      6.373  0.5414E-01  0.3856E+01
      6.475  0.4518E-01  0.3861E+01
      6.577  0.6677E-01  0.3868E+01
      6.679  0.1298E+00  0.3881E+01
      6.781  0.9237E-01  0.3890E+01
      6.883  0.1316E+00  0.3904E+01
      6.986  0.5128E-01  0.3909E+01
      7.088  0.1439E+00  0.3924E+01
      7.190  0.2886E+00  0.3953E+01
      7.292  0.2475E+00  0.3979E+01
      7.394  0.2678E+00  0.4006E+01
      7.496  0.2700E+00  0.4033E+01
      7.598  0.2828E+00  0.4062E+01
      7.700  0.2120E+00  0.4084E+01
      7.802  0.1318E+00  0.4097E+01
      7.904  0.2437E+00  0.4122E+01
      8.006  0.2302E+00  0.4146E+01
      8.108  0.2659E+00  0.4173E+01
      8.210  0.3643E+00  0.4210E+01
      8.312  0.3233E+00  0.4243E+01
      8.414  0.2455E+00  0.4268E+01
      8.516  0.2921E+00  0.4298E+01
      8.619  0.3133E+00  0.4330E+01
      8.721  0.3566E+00  0.4366E+01
      8.823  0.2448E+00  0.4391E+01
      8.925  0.2615E+00  0.4418E+01
      9.027  0.2181E+00  0.4440E+01
      9.129  0.1610E+00  0.4457E+01
      9.231  0.3000E+00  0.4487E+01
      9.333  0.4338E+00  0.4532E+01
      9.435  0.4568E+00  0.4578E+01
      9.537  0.3602E+00  0.4615E+01
      9.639  0.1811E+00  0.4633E+01
      9.741  0.6336E-01  0.4640E+01
      9.843  0.1220E-02  0.4640E+01
      9.945  0.3842E-07  0.4640E+01
     10.047  0.4460E-15  0.4640E+01
     10.149  0.0000E+00  0.4640E+01
     10.252  0.0000E+00  0.4640E+01
     10.354  0.0000E+00  0.4640E+01
     10.456  0.0000E+00  0.4640E+01
     10.558  0.0000E+00  0.4640E+01
     10.660  0.0000E+00  0.4640E+01
     10.762  0.0000E+00  0.4640E+01
     10.864  0.0000E+00  0.4640E+01
     10.966  0.0000E+00  0.4640E+01
     11.068  0.0000E+00  0.4640E+01
