       N       E                     dE             d eps       ncg     rms          rms(c)
DAV:   1     0.532506929163E+04    0.53251E+04   -0.17717E+05  5568   0.189E+03
DAV:   2     0.858055327635E+03   -0.44670E+04   -0.43334E+04  5592   0.539E+02
DAV:   3    -0.127192904862E+03   -0.98525E+03   -0.92207E+03  6256   0.250E+02
DAV:   4    -0.237789365075E+03   -0.11060E+03   -0.10738E+03  6544   0.767E+01
DAV:   5    -0.243246268802E+03   -0.54569E+01   -0.53962E+01  6960   0.164E+01    0.346E+01
DAV:   6    -0.207571997086E+03    0.35674E+02   -0.16486E+02  7432   0.481E+01    0.154E+01
DAV:   7    -0.206523458356E+03    0.10485E+01   -0.29208E+01  6160   0.121E+01    0.792E+00
DAV:   8    -0.206670872691E+03   -0.14741E+00   -0.56993E+00  7480   0.477E+00    0.328E+00
DAV:   9    -0.206628930593E+03    0.41942E-01   -0.55185E-01  7264   0.226E+00    0.143E+00
DAV:  10    -0.206616258064E+03    0.12673E-01   -0.18170E-01  7224   0.127E+00    0.428E-01
DAV:  11    -0.206618879080E+03   -0.26210E-02   -0.21115E-02  7592   0.298E-01    0.311E-01
DAV:  12    -0.206620407244E+03   -0.15282E-02   -0.59848E-03  7008   0.184E-01    0.135E-01
DAV:  13    -0.206620380556E+03    0.26688E-04   -0.51025E-04  6736   0.865E-02    0.863E-02
DAV:  14    -0.206620324697E+03    0.55859E-04   -0.46432E-04  6776   0.423E-02    0.325E-02
DAV:  15    -0.206620318881E+03    0.58155E-05   -0.78911E-05  7360   0.216E-02    0.105E-02
DAV:  16    -0.206620318393E+03    0.48845E-06   -0.97210E-06  7440   0.709E-03    0.429E-03
DAV:  17    -0.206620317233E+03    0.11603E-05   -0.18480E-06  6384   0.355E-03    0.224E-03
DAV:  18    -0.206620317497E+03   -0.26391E-06   -0.14841E-07  6656   0.102E-03    0.780E-04
DAV:  19    -0.206620317580E+03   -0.83402E-07   -0.39790E-08  5248   0.671E-04    0.333E-04
DAV:  20    -0.206620317591E+03   -0.11183E-07   -0.12251E-08  3536   0.358E-04    0.150E-04
DAV:  21    -0.206620317582E+03    0.93496E-08   -0.31285E-09  3392   0.223E-04
   1 F= -.20662032E+03 E0= -.20661938E+03  d E =-.206620E+03
       N       E                     dE             d eps       ncg     rms          rms(c)
DAV:   1    -0.206620317573E+03    0.17808E-07   -0.49586E-08  4944   0.475E-04    0.604E-05
DAV:   2    -0.206620317576E+03   -0.27376E-08   -0.17537E-09  3376   0.173E-04    0.281E-05
DAV:   3    -0.206620317577E+03   -0.54024E-09   -0.63632E-10  3344   0.108E-04    0.188E-05
DAV:   4    -0.206620317576E+03    0.29650E-09   -0.23946E-10  3328   0.663E-05    0.116E-05
DAV:   5    -0.206620317577E+03   -0.40018E-09   -0.12490E-10  3336   0.472E-05
   2 F= -.20662032E+03 E0= -.20661938E+03  d E =0.507680E-08
       N       E                     dE             d eps       ncg     rms          rms(c)
DAV:   1    -0.206620317576E+03    0.74579E-09   -0.29827E-09  3328   0.125E-04    0.144E-05
DAV:   2    -0.206620317576E+03   -0.15098E-09   -0.32385E-10  3336   0.778E-05    0.825E-06
DAV:   3    -0.206620317575E+03    0.48749E-09   -0.78389E-11  3304   0.417E-05    0.347E-06
DAV:   4    -0.206620317576E+03   -0.26557E-09   -0.41105E-11  3312   0.238E-05    0.341E-06
DAV:   5    -0.206620317576E+03   -0.40200E-09   -0.13562E-11  3272   0.191E-05
   3 F= -.20662032E+03 E0= -.20661938E+03  d E =0.589171E-08
       N       E                     dE             d eps       ncg     rms          rms(c)
DAV:   1    -0.206620317576E+03   -0.27649E-09   -0.17372E-09  3232   0.907E-05    0.863E-06
DAV:   2    -0.206620317575E+03    0.75579E-09   -0.17291E-10  3208   0.456E-05    0.484E-06
DAV:   3    -0.206620317575E+03   -0.33742E-09   -0.40428E-11  3192   0.281E-05    0.242E-06
DAV:   4    -0.206620317575E+03    0.72760E-10   -0.16302E-11  3160   0.157E-05    0.198E-06
DAV:   5    -0.206620317575E+03    0.78398E-09   -0.35299E-12  3152   0.112E-05
   4 F= -.20662032E+03 E0= -.20661938E+03  d E =0.729233E-08
       N       E                     dE             d eps       ncg     rms          rms(c)
DAV:   1    -0.206620317576E+03   -0.70941E-09   -0.27754E-08  4344   0.373E-04    0.254E-05
DAV:   2    -0.206620317576E+03   -0.80036E-10   -0.12138E-09  3096   0.105E-04    0.755E-06
DAV:   3    -0.206620317577E+03   -0.11896E-08   -0.23108E-10  3080   0.539E-05    0.599E-06
DAV:   4    -0.206620317576E+03    0.15561E-08   -0.67351E-11  3072   0.311E-05    0.505E-06
DAV:   5    -0.206620317577E+03   -0.12051E-08   -0.24302E-11  3072   0.205E-05
   5 F= -.20662032E+03 E0= -.20661938E+03  d E =-.241198E-08
       N       E                     dE             d eps       ncg     rms          rms(c)
DAV:   1    -0.206620317576E+03   -0.47385E-09   -0.26621E-08  4096   0.367E-04    0.251E-05
DAV:   2    -0.206620317576E+03   -0.65484E-10   -0.14069E-09  3072   0.113E-04    0.808E-06
DAV:   3    -0.206620317577E+03   -0.47112E-09   -0.27150E-10  3072   0.606E-05    0.694E-06
DAV:   4    -0.206620317577E+03   -0.25466E-10   -0.97550E-11  3072   0.381E-05    0.659E-06
DAV:   5    -0.206620317577E+03   -0.48203E-10   -0.40391E-11  3040   0.254E-05
   6 F= -.20662032E+03 E0= -.20661938E+03  d E =-.229102E-08
       N       E                     dE             d eps       ncg     rms          rms(c)
DAV:   1    -0.206620317578E+03   -0.97316E-09   -0.79703E-09  3064   0.198E-04    0.198E-05
DAV:   2    -0.206620317577E+03    0.61846E-09   -0.55057E-10  3024   0.821E-05    0.723E-06
DAV:   3    -0.206620317577E+03   -0.96406E-10   -0.87690E-11  3016   0.466E-05    0.488E-06
DAV:   4    -0.206620317577E+03   -0.17462E-09   -0.28441E-11  3000   0.243E-05    0.501E-06
DAV:   5    -0.206620317578E+03   -0.50022E-09   -0.11406E-11  3000   0.163E-05
   7 F= -.20662032E+03 E0= -.20661938E+03  d E =-.107775E-08
       N       E                     dE             d eps       ncg     rms          rms(c)
DAV:   1    -0.206620317578E+03   -0.27285E-09   -0.10492E-08  3232   0.226E-04    0.219E-05
DAV:   2    -0.206620317578E+03   -0.50022E-09   -0.67382E-10  3000   0.902E-05    0.892E-06
DAV:   3    -0.206620317578E+03   -0.14734E-09   -0.10513E-10  3000   0.515E-05    0.542E-06
DAV:   4    -0.206620317578E+03    0.91859E-10   -0.44264E-11  3000   0.259E-05    0.596E-06
DAV:   5    -0.206620317579E+03   -0.63392E-09   -0.73587E-12  3000   0.213E-05
   8 F= -.20662032E+03 E0= -.20661938E+03  d E =-.204000E-08
       N       E                     dE             d eps       ncg     rms          rms(c)
DAV:   1    -0.206620317579E+03   -0.84219E-09   -0.42885E-08  4232   0.450E-04    0.396E-05
DAV:   2    -0.206620317579E+03   -0.22737E-10   -0.18081E-09  3000   0.115E-04    0.120E-05
DAV:   3    -0.206620317580E+03   -0.63483E-09   -0.26236E-10  3000   0.651E-05    0.101E-05
DAV:   4    -0.206620317580E+03    0.96406E-10   -0.83188E-11  3000   0.400E-05    0.912E-06
DAV:   5    -0.206620317580E+03   -0.36198E-09   -0.39676E-11  3000   0.241E-05
   9 F= -.20662032E+03 E0= -.20661938E+03  d E =-.317141E-08
       N       E                     dE             d eps       ncg     rms          rms(c)
DAV:   1    -0.206620317581E+03   -0.13961E-08   -0.17389E-07  5400   0.897E-04    0.772E-05
DAV:   2    -0.206620317582E+03   -0.12105E-08   -0.49426E-09  3000   0.197E-04    0.250E-05
DAV:   3    -0.206620317583E+03   -0.47385E-09   -0.67329E-10  3000   0.124E-04    0.184E-05
DAV:   4    -0.206620317582E+03    0.48203E-09   -0.16985E-10  3000   0.616E-05    0.171E-05
DAV:   5    -0.206620317583E+03   -0.87675E-09   -0.88230E-11  3000   0.414E-05
  10 F= -.20662032E+03 E0= -.20661938E+03  d E =-.628461E-08
       N       E                     dE             d eps       ncg     rms          rms(c)
DAV:   1    -0.206620317584E+03   -0.13997E-08   -0.85277E-09  3040   0.208E-04    0.235E-05
DAV:   2    -0.206620317582E+03    0.12969E-08   -0.71193E-10  3000   0.109E-04    0.910E-06
DAV:   3    -0.206620317583E+03   -0.69394E-09   -0.13505E-10  3000   0.580E-05    0.485E-06
DAV:   4    -0.206620317584E+03   -0.80036E-09   -0.61328E-11  3000   0.301E-05    0.632E-06
DAV:   5    -0.206620317583E+03    0.47567E-09   -0.24845E-11  3000   0.241E-05
  11 F= -.20662032E+03 E0= -.20661938E+03  d E =-.244654E-09
       N       E                     dE             d eps       ncg     rms          rms(c)
DAV:   1    -0.206620317583E+03    0.93041E-09   -0.58191E-11  3000   0.196E-05    0.381E-06
DAV:   2    -0.206620317583E+03   -0.43656E-10   -0.10562E-11  3000   0.222E-05    0.132E-06
DAV:   3    -0.206620317583E+03    0.65484E-10   -0.59170E-12  3000   0.816E-06    0.103E-06
DAV:   4    -0.206620317583E+03    0.45475E-10   -0.45898E-12  3000   0.640E-06    0.112E-06
DAV:   5    -0.206620317584E+03   -0.75761E-09   -0.27611E-12  3000   0.542E-06
  12 F= -.20662032E+03 E0= -.20661938E+03  d E =-.480213E-09
       N       E                     dE             d eps       ncg     rms          rms(c)
DAV:   1    -0.206620317583E+03   -0.25830E-09   -0.13818E-10  3000   0.257E-05    0.290E-06
DAV:   2    -0.206620317583E+03   -0.11732E-09   -0.11842E-11  3000   0.128E-05    0.854E-07
DAV:   3    -0.206620317583E+03    0.19736E-09   -0.51094E-12  3000   0.682E-06    0.687E-07
DAV:   4    -0.206620317583E+03   -0.17462E-09    0.23175E-12  3000   0.385E-06    0.597E-07
DAV:   5    -0.206620317583E+03    0.23465E-09   -0.16182E-12  3000   0.257E-06
  13 F= -.20662032E+03 E0= -.20661938E+03  d E =0.159162E-09
       N       E                     dE             d eps       ncg     rms          rms(c)
DAV:   1    -0.206620317584E+03   -0.68212E-09   -0.52124E-10  3000   0.501E-05    0.511E-06
DAV:   2    -0.206620317584E+03    0.31650E-09   -0.40330E-11  3000   0.198E-05    0.199E-06
DAV:   3    -0.206620317584E+03   -0.25102E-09   -0.91286E-12  3000   0.119E-05    0.127E-06
DAV:   4    -0.206620317584E+03    0.11642E-09   -0.77204E-12  2992   0.598E-06    0.130E-06
DAV:   5    -0.206620317583E+03    0.70122E-09   -0.25222E-13  2976   0.456E-06
  14 F= -.20662032E+03 E0= -.20661938E+03  d E =0.125510E-09
       N       E                     dE             d eps       ncg     rms          rms(c)
DAV:   1    -0.206620317585E+03   -0.10459E-08   -0.20548E-09  2976   0.998E-05    0.102E-05
DAV:   2    -0.206620317585E+03   -0.48476E-09   -0.15659E-10  2976   0.355E-05    0.283E-06
DAV:   3    -0.206620317585E+03   -0.14643E-09   -0.21230E-11  2976   0.184E-05    0.249E-06
DAV:   4    -0.206620317585E+03    0.53842E-09   -0.71427E-12  2976   0.115E-05    0.229E-06
DAV:   5    -0.206620317585E+03   -0.40018E-10   -0.30782E-12  2976   0.661E-06
  15 F= -.20662032E+03 E0= -.20661938E+03  d E =-.175442E-08
       N       E                     dE             d eps       ncg     rms          rms(c)
DAV:   1    -0.206620317584E+03    0.60027E-09   -0.81925E-09  2992   0.199E-04    0.207E-05
DAV:   2    -0.206620317584E+03    0.22101E-09   -0.60131E-10  2976   0.765E-05    0.740E-06
DAV:   3    -0.206620317585E+03   -0.54570E-09   -0.91815E-11  2976   0.464E-05    0.493E-06
DAV:   4    -0.206620317585E+03   -0.49840E-09   -0.28259E-11  2976   0.233E-05    0.483E-06
DAV:   5    -0.206620317585E+03   -0.16917E-09   -0.10300E-11  2976   0.173E-05
  16 F= -.20662032E+03 E0= -.20661938E+03  d E =-.210639E-08
       N       E                     dE             d eps       ncg     rms          rms(c)
DAV:   1    -0.206620317585E+03    0.31741E-09   -0.99266E-10  2976   0.709E-05    0.761E-06
DAV:   2    -0.206620317585E+03    0.16917E-09   -0.79708E-11  2976   0.381E-05    0.317E-06
DAV:   3    -0.206620317585E+03   -0.51659E-09   -0.14425E-11  2976   0.196E-05    0.174E-06
DAV:   4    -0.206620317585E+03    0.17099E-09   -0.83440E-12  2976   0.108E-05    0.218E-06
DAV:   5    -0.206620317586E+03   -0.99499E-09   -0.39714E-12  2976   0.805E-06
  17 F= -.20662032E+03 E0= -.20661938E+03  d E =-.279124E-08
       N       E                     dE             d eps       ncg     rms          rms(c)
DAV:   1    -0.206620317585E+03   -0.44201E-09   -0.38809E-09  2976   0.137E-04    0.141E-05
DAV:   2    -0.206620317585E+03    0.45566E-09   -0.29455E-10  2976   0.535E-05    0.511E-06
DAV:   3    -0.206620317585E+03   -0.45020E-09   -0.50882E-11  2976   0.330E-05    0.346E-06
DAV:   4    -0.206620317585E+03    0.83674E-10   -0.14134E-11  2976   0.164E-05    0.340E-06
DAV:   5    -0.206620317585E+03   -0.18190E-10   -0.30820E-12  2960   0.122E-05
  18 F= -.20662032E+03 E0= -.20661938E+03  d E =-.216733E-08
       N       E                     dE             d eps       ncg     rms          rms(c)
DAV:   1    -0.206620317586E+03   -0.10850E-08   -0.15807E-08  3584   0.274E-04    0.268E-05
DAV:   2    -0.206620317586E+03    0.37107E-09   -0.86650E-10  2952   0.799E-05    0.783E-06
DAV:   3    -0.206620317586E+03   -0.94587E-10   -0.12790E-10  2952   0.471E-05    0.665E-06
DAV:   4    -0.206620317586E+03   -0.36289E-09   -0.38929E-11  2952   0.284E-05    0.573E-06
DAV:   5    -0.206620317587E+03   -0.93860E-09   -0.22411E-11  2952   0.172E-05
  19 F= -.20662032E+03 E0= -.20661938E+03  d E =-.425916E-08
       N       E                     dE             d eps       ncg     rms          rms(c)
DAV:   1    -0.206620317587E+03   -0.13188E-09   -0.30727E-09  2952   0.122E-04    0.108E-05
DAV:   2    -0.206620317586E+03    0.53387E-09   -0.31818E-10  2952   0.765E-05    0.778E-06
DAV:   3    -0.206620317586E+03   -0.29104E-09   -0.94621E-11  2952   0.412E-05    0.334E-06
DAV:   4    -0.206620317587E+03   -0.86948E-09   -0.34358E-11  2952   0.258E-05    0.431E-06
DAV:   5    -0.206620317586E+03    0.74942E-09   -0.18583E-11  2952   0.180E-05
  20 F= -.20662032E+03 E0= -.20661938E+03  d E =0.929504E-09
