 vasp.6.4.3 19Mar24 (build Apr 09 2025 20:43:19) complex                        
  
 executed on             LinuxIFC date 2025.04.17  06:49:48
 running   36 mpi-ranks, on    1 nodes
 distrk:  each k-point on   36 cores,    1 groups
 distr:  one band on NCORE=   9 cores,    4 groups


--------------------------------------------------------------------------------------------------------


 INCAR:
   PREC = Accurate
   IBRION = 2
   NSW = 100
   NELMIN = 5
   ISIF = 2
   ENCUT = 520
   EDIFF = 1.000000e-08
   EDIFFG = -1.000000e-5
   ISMEAR = 0
   SIGMA = 0.05
   IALGO = 38
   LREAL = .FALSE.
   ADDGRID = .TRUE.
   LWAVE = .FALSE.
   LCHARG = .FALSE.
   NCORE = 9

 POTCAR:    PAW_PBE Bi_d 06Sep2000                
 POTCAR:    PAW_PBE Se 06Sep2000                  
 POTCAR:    PAW_PBE O 08Apr2002                   
 POTCAR:    PAW_PBE S 06Sep2000                   
 POTCAR:    PAW_PBE Bi_d 06Sep2000                
   SHA256 =  572e7eac3f9482ff025db24f2820381a7a3856069fa85913dc654793f618f69a Bi_d/POTCAR           
   COPYR  = (c) Copyright 06Sep2000 Georg Kresse                                                    
   COPYR  = This file is part of the software VASP. Any use, copying, and all other rights are regul
   COPYR  = If you do not have a valid VASP license, you may not use, copy or distribute this file. 
   VRHFIN =Bi:                                                                                      
   LEXCH  = PE                                                                                      
   EATOM  =  1959.2045 eV,  143.9975 Ry                                                             
                                                                                                    
   TITEL  = PAW_PBE Bi_d 06Sep2000                                                                  
   LULTRA =        F    use ultrasoft PP ?                                                          
   IUNSCR =        1    unscreen: 0-lin 1-nonlin 2-no                                               
   RPACOR =    2.200    partial core radius                                                         
   POMASS =  208.980; ZVAL   =   15.000    mass and valenz                                          
   RCORE  =    2.500    outmost cutoff radius                                                       
   RWIGS  =    3.090; RWIGS  =    1.635    wigner-seitz radius (au A)                               
   ENMAX  =  242.839; ENMIN  =  182.129 eV                                                          
   ICORE  =        3    local potential                                                             
   LCOR   =        T    correct aug charges                                                         
   LPAW   =        T    paw PP                                                                      
   EAUG   =  442.899                                                                                
   DEXC   =    0.000                                                                                
   RMAX   =    2.551    core radius for proj-oper                                                   
   RAUG   =    1.300    factor for augmentation sphere                                              
   RDEP   =    2.650    radius for radial grids                                                     
   RDEPT  =    2.039    core radius for aug-charge                                                  
                                                                                                    
   Atomic configuration                                                                             
   16 entries                                                                                       
     n  l   j            E        occ.                                                              
     1  0  0.50    -90639.6581   2.0000                                                             
     2  0  0.50    -16282.4666   2.0000                                                             
     2  1  1.50    -13922.8286   6.0000                                                             
     3  0  0.50     -3930.4763   2.0000                                                             
     3  1  1.50     -3256.7013   6.0000                                                             
     3  2  2.50     -2581.6168  10.0000                                                             
     4  0  0.50      -902.2614   2.0000                                                             
     4  1  1.50      -681.5915   6.0000                                                             
     4  2  2.50      -429.8249  10.0000                                                             
     4  3  3.50      -152.6004  14.0000                                                             
     5  0  0.50      -157.7156   2.0000                                                             
     5  1  1.50       -95.8054   6.0000                                                             
     5  2  2.50       -27.0806  10.0000                                                             
     6  0  0.50       -14.4732   2.0000                                                             
     6  1  1.50        -4.5702   3.0000                                                             
     5  3  2.50        -2.7212   0.0000                                                             
   Description                                                                                      
     l       E           TYP  RCUT    TYP  RCUT                                                     
     2    -27.0805982     23  2.500                                                                 
     2     -1.3605826     23  2.500                                                                 
     0    -14.4732271     23  2.500                                                                 
     0      6.8029130     23  2.500                                                                 
     1     -4.5701651     23  2.500                                                                 
     1     13.6058260     23  2.500                                                                 
     3     -1.3605826      7  2.500                                                                 
  local pseudopotential read in
  partial core-charges read in
  partial kinetic energy density read in
  atomic valenz-charges read in
  non local Contribution for L=           2  read in
    real space projection operators read in
  non local Contribution for L=           2  read in
    real space projection operators read in
  non local Contribution for L=           0  read in
    real space projection operators read in
  non local Contribution for L=           0  read in
    real space projection operators read in
  non local Contribution for L=           1  read in
    real space projection operators read in
  non local Contribution for L=           1  read in
    real space projection operators read in
    PAW grid and wavefunctions read in
 
   number of l-projection  operators is LMAX  =           6
   number of lm-projection operators is LMMAX =          18
 
 POTCAR:    PAW_PBE Se 06Sep2000                  
   SHA256 =  eabb916e6b4c819dc065ce039373bc328651da483898f08fb9e49c498452bf12 Se/POTCAR             
   COPYR  = (c) Copyright 06Sep2000 Georg Kresse                                                    
   COPYR  = This file is part of the software VASP. Any use, copying, and all other rights are regul
   COPYR  = If you do not have a valid VASP license, you may not use, copy or distribute this file. 
   VRHFIN =Se: s2p4                                                                                 
   LEXCH  = PE                                                                                      
   EATOM  =   257.1286 eV,   18.8984 Ry                                                             
                                                                                                    
   TITEL  = PAW_PBE Se 06Sep2000                                                                    
   LULTRA =        F    use ultrasoft PP ?                                                          
   IUNSCR =        1    unscreen: 0-lin 1-nonlin 2-no                                               
   RPACOR =    1.900    partial core radius                                                         
   POMASS =   78.960; ZVAL   =    6.000    mass and valenz                                          
   RCORE  =    2.100    outmost cutoff radius                                                       
   RWIGS  =    2.200; RWIGS  =    1.164    wigner-seitz radius (au A)                               
   ENMAX  =  211.555; ENMIN  =  158.666 eV                                                          
   ICORE  =        3    local potential                                                             
   LCOR   =        T    correct aug charges                                                         
   LPAW   =        T    paw PP                                                                      
   EAUG   =  446.842                                                                                
   DEXC   =    0.000                                                                                
   RMAX   =    2.147    core radius for proj-oper                                                   
   RAUG   =    1.300    factor for augmentation sphere                                              
   RDEP   =    2.177    radius for radial grids                                                     
   RDEPT  =    1.928    core radius for aug-charge                                                  
                                                                                                    
   Atomic configuration                                                                             
   10 entries                                                                                       
     n  l   j            E        occ.                                                              
     1  0  0.50    -12503.4787   2.0000                                                             
     2  0  0.50     -1606.9547   2.0000                                                             
     2  1  1.50     -1413.3140   6.0000                                                             
     3  0  0.50      -213.4885   2.0000                                                             
     3  1  1.50      -152.9538   6.0000                                                             
     3  2  2.50       -53.1221  10.0000                                                             
     4  0  0.50       -17.2865   2.0000                                                             
     4  1  0.50        -6.5110   4.0000                                                             
     4  2  2.50        -6.8029   0.0000                                                             
     4  3  2.50        -6.8029   0.0000                                                             
   Description                                                                                      
     l       E           TYP  RCUT    TYP  RCUT                                                     
     0    -17.2865377     23  2.100                                                                 
     0    -15.3094411     23  2.100                                                                 
     1     -6.5110275     23  2.100                                                                 
     1     -0.0695192     23  2.100                                                                 
     2     -6.8029130     23  2.100                                                                 
     3     -1.3605826      7  2.100                                                                 
  local pseudopotential read in
  partial core-charges read in
  partial kinetic energy density read in
  atomic valenz-charges read in
  non local Contribution for L=           0  read in
    real space projection operators read in
  non local Contribution for L=           0  read in
    real space projection operators read in
  non local Contribution for L=           1  read in
    real space projection operators read in
  non local Contribution for L=           1  read in
    real space projection operators read in
  non local Contribution for L=           2  read in
    real space projection operators read in
    PAW grid and wavefunctions read in
 
   number of l-projection  operators is LMAX  =           5
   number of lm-projection operators is LMMAX =          13
 
 POTCAR:    PAW_PBE O 08Apr2002                   
   SHA256 =  818f92134a0a090dccd8ba1447fa70422a3b330e708bb4f08108d8ae51209ddf O/POTCAR              
   COPYR  = (c) Copyright 08Apr2002 Georg Kresse                                                    
   COPYR  = This file is part of the software VASP. Any use, copying, and all other rights are regul
   COPYR  = If you do not have a valid VASP license, you may not use, copy or distribute this file. 
   VRHFIN =O: s2p4                                                                                  
   LEXCH  = PE                                                                                      
   EATOM  =   432.3788 eV,   31.7789 Ry                                                             
                                                                                                    
   TITEL  = PAW_PBE O 08Apr2002                                                                     
   LULTRA =        F    use ultrasoft PP ?                                                          
   IUNSCR =        1    unscreen: 0-lin 1-nonlin 2-no                                               
   RPACOR =    1.200    partial core radius                                                         
   POMASS =   16.000; ZVAL   =    6.000    mass and valenz                                          
   RCORE  =    1.520    outmost cutoff radius                                                       
   RWIGS  =    1.550; RWIGS  =    0.820    wigner-seitz radius (au A)                               
   ENMAX  =  400.000; ENMIN  =  300.000 eV                                                          
   ICORE  =        2    local potential                                                             
   LCOR   =        T    correct aug charges                                                         
   LPAW   =        T    paw PP                                                                      
   EAUG   =  605.392                                                                                
   DEXC   =    0.000                                                                                
   RMAX   =    1.553    core radius for proj-oper                                                   
   RAUG   =    1.300    factor for augmentation sphere                                              
   RDEP   =    1.550    radius for radial grids                                                     
   RDEPT  =    1.329    core radius for aug-charge                                                  
                                                                                                    
   Atomic configuration                                                                             
    4 entries                                                                                       
     n  l   j            E        occ.                                                              
     1  0  0.50      -514.6923   2.0000                                                             
     2  0  0.50       -23.9615   2.0000                                                             
     2  1  0.50        -9.0305   4.0000                                                             
     3  2  1.50        -9.5241   0.0000                                                             
   Description                                                                                      
     l       E           TYP  RCUT    TYP  RCUT                                                     
     0    -23.9615318     23  1.200                                                                 
     0     -9.5240782     23  1.200                                                                 
     1     -9.0304911     23  1.520                                                                 
     1      8.1634956     23  1.520                                                                 
     2     -9.5240782      7  1.500                                                                 
  local pseudopotential read in
  partial core-charges read in
  partial kinetic energy density read in
  kinetic energy density of atom read in
  atomic valenz-charges read in
  non local Contribution for L=           0  read in
    real space projection operators read in
  non local Contribution for L=           0  read in
    real space projection operators read in
  non local Contribution for L=           1  read in
    real space projection operators read in
  non local Contribution for L=           1  read in
    real space projection operators read in
    PAW grid and wavefunctions read in
 
   number of l-projection  operators is LMAX  =           4
   number of lm-projection operators is LMMAX =           8
 
 POTCAR:    PAW_PBE S 06Sep2000                   
   SHA256 =  0fc7481fb0695f01bdc6462160264c5c84044ae9ec85a907d398b887a2bc3132 S/POTCAR              
   COPYR  = (c) Copyright 06Sep2000 Georg Kresse                                                    
   COPYR  = This file is part of the software VASP. Any use, copying, and all other rights are regul
   COPYR  = If you do not have a valid VASP license, you may not use, copy or distribute this file. 
   VRHFIN =S : s2p4                                                                                 
   LEXCH  = PE                                                                                      
   EATOM  =   276.8230 eV,   20.3459 Ry                                                             
                                                                                                    
   TITEL  = PAW_PBE S 06Sep2000                                                                     
   LULTRA =        F    use ultrasoft PP ?                                                          
   IUNSCR =        1    unscreen: 0-lin 1-nonlin 2-no                                               
   RPACOR =    1.500    partial core radius                                                         
   POMASS =   32.066; ZVAL   =    6.000    mass and valenz                                          
   RCORE  =    1.900    outmost cutoff radius                                                       
   RWIGS  =    2.200; RWIGS  =    1.164    wigner-seitz radius (au A)                               
   ENMAX  =  258.689; ENMIN  =  194.016 eV                                                          
   ICORE  =        2    local potential                                                             
   LCOR   =        T    correct aug charges                                                         
   LPAW   =        T    paw PP                                                                      
   EAUG   =  335.092                                                                                
   DEXC   =    0.000                                                                                
   RMAX   =    1.942    core radius for proj-oper                                                   
   RAUG   =    1.300    factor for augmentation sphere                                              
   RDEP   =    1.954    radius for radial grids                                                     
   RDEPT  =    1.744    core radius for aug-charge                                                  
                                                                                                    
   Atomic configuration                                                                             
    6 entries                                                                                       
     n  l   j            E        occ.                                                              
     1  0  0.50     -2405.8406   2.0000                                                             
     2  0  0.50      -211.7007   2.0000                                                             
     2  1  1.50      -156.4958   6.0000                                                             
     3  0  0.50       -17.2562   2.0000                                                             
     3  1  0.50        -7.0085   4.0000                                                             
     3  2  1.50        -6.8029   0.0000                                                             
   Description                                                                                      
     l       E           TYP  RCUT    TYP  RCUT                                                     
     0    -17.2561641     23  1.900                                                                 
     0    -15.8743224     23  1.900                                                                 
     1     -7.0085400     23  1.900                                                                 
     1     -2.7779785     23  1.900                                                                 
     2     -6.8029130     23  1.900                                                                 
  local pseudopotential read in
  partial core-charges read in
  partial kinetic energy density read in
  atomic valenz-charges read in
  non local Contribution for L=           0  read in
    real space projection operators read in
  non local Contribution for L=           0  read in
    real space projection operators read in
  non local Contribution for L=           1  read in
    real space projection operators read in
  non local Contribution for L=           1  read in
    real space projection operators read in
    PAW grid and wavefunctions read in
 
   number of l-projection  operators is LMAX  =           4
   number of lm-projection operators is LMMAX =           8
 
 -----------------------------------------------------------------------------
|                                                                             |
|               ----> ADVICE to this user running VASP <----                  |
|                                                                             |
|     You have a (more or less) 'large supercell' and for larger cells it     |
|     might be more efficient to use real-space projection operators.         |
|     Therefore, try LREAL= Auto in the INCAR file.                           |
|     Mind: For very accurate calculation, you might also keep the            |
|     reciprocal projection scheme (i.e. LREAL=.FALSE.).                      |
|                                                                             |
 -----------------------------------------------------------------------------

  PAW_PBE Bi_d 06Sep2000                :
 energy of atom  1       EATOM=-1959.2045
 kinetic energy error for atom=    0.0040 (will be added to EATOM!!)
  PAW_PBE Se 06Sep2000                  :
 energy of atom  2       EATOM= -257.1286
 kinetic energy error for atom=    0.0007 (will be added to EATOM!!)
  PAW_PBE O 08Apr2002                   :
 energy of atom  3       EATOM= -432.3788
 kinetic energy error for atom=    0.0208 (will be added to EATOM!!)
  PAW_PBE S 06Sep2000                   :
 energy of atom  4       EATOM= -276.8230
 kinetic energy error for atom=    0.0016 (will be added to EATOM!!)
 
 
 POSCAR: generated by phonopy
  positions in direct lattice
  velocities in cartesian coordinates


 exchange-correlation table for PE
   RHO(1)=    0.500       N(1)  =     2000
   RHO(2)=  100.500       N(2)  =     4000
 


--------------------------------------------------------------------------------------------------------


 ion  position               nearest neighbor table
   1  0.247  0.247  0.849-  24 2.37  28 2.37  25 2.42  30 2.42   8 3.79   7 3.81   6 3.81  13 3.88
                             5 3.88
   2  0.753  0.247  0.849-  24 2.37  29 2.37  25 2.42  31 2.42   8 3.79   7 3.81   6 3.81  14 3.88
                             5 3.88
   3  0.247  0.753  0.849-  26 2.37  28 2.37  27 2.42  30 2.42   8 3.79   7 3.81   6 3.81  15 3.88
                             5 3.88
   4  0.753  0.753  0.849-  26 2.37  29 2.37  27 2.42  31 2.42   8 3.79   7 3.81   6 3.81  16 3.88
                             5 3.88
   5  0.000  0.000  0.644-  24 2.50  26 2.50  28 2.50  29 2.50  20 3.28  21 3.28  22 3.28  23 3.28
                             9 3.71   2 3.88   3 3.88   4 3.88   1 3.88
   6  0.500  0.000  0.656-  28 2.36  29 2.36  25 2.40  27 2.40   1 3.81   2 3.81   3 3.81   4 3.81

   7  0.000  0.500  0.656-  24 2.36  26 2.36  30 2.40  31 2.40   1 3.81   2 3.81   3 3.81   4 3.81

   8  0.500  0.500  0.662-  25 2.32  27 2.32  30 2.32  31 2.32   1 3.79   2 3.79   3 3.79   4 3.79

   9  0.000  0.000  0.356-  32 2.50  33 2.50  36 2.50  38 2.50  20 3.28  21 3.28  22 3.28  23 3.28
                             5 3.71  13 3.88  14 3.88  15 3.88  16 3.88
  10  0.500  0.000  0.344-  32 2.36  33 2.36  37 2.40  39 2.40  13 3.81  14 3.81  15 3.81  16 3.81

  11  0.000  0.500  0.344-  36 2.36  38 2.36  34 2.40  35 2.40  13 3.81  14 3.81  15 3.81  16 3.81

  12  0.500  0.500  0.338-  34 2.32  35 2.32  37 2.32  39 2.32  13 3.79  14 3.79  15 3.79  16 3.79

  13  0.247  0.247  0.151-  32 2.37  36 2.37  34 2.42  37 2.42  12 3.79  11 3.81  10 3.81   1 3.88
                             9 3.88
  14  0.753  0.247  0.151-  33 2.37  36 2.37  35 2.42  37 2.42  12 3.79  11 3.81  10 3.81   2 3.88
                             9 3.88
  15  0.247  0.753  0.151-  32 2.37  38 2.37  34 2.42  39 2.42  12 3.79  11 3.81  10 3.81   3 3.88
                             9 3.88
  16  0.753  0.753  0.151-  33 2.37  38 2.37  35 2.42  39 2.42  12 3.79  11 3.81  10 3.81   4 3.88
                             9 3.88
  17  0.500  0.000  0.000-
  18  0.000  0.500  0.000-
  19  0.500  0.500  0.000-
  20  0.235  0.235  0.500-   5 3.28   9 3.28
  21  0.765  0.235  0.500-   5 3.28   9 3.28
  22  0.235  0.765  0.500-   5 3.28   9 3.28
  23  0.765  0.765  0.500-   5 3.28   9 3.28
  24  0.000  0.254  0.753-   7 2.36   2 2.37   1 2.37   5 2.50
  25  0.500  0.253  0.751-   8 2.32   6 2.40   1 2.42   2 2.42
  26  0.000  0.746  0.753-   7 2.36   4 2.37   3 2.37   5 2.50
  27  0.500  0.747  0.751-   8 2.32   6 2.40   3 2.42   4 2.42
  28  0.254  0.000  0.753-   6 2.36   3 2.37   1 2.37   5 2.50
  29  0.746  0.000  0.753-   6 2.36   4 2.37   2 2.37   5 2.50
  30  0.253  0.500  0.751-   8 2.32   7 2.40   1 2.42   3 2.42
  31  0.747  0.500  0.751-   8 2.32   7 2.40   2 2.42   4 2.42
  32  0.254  0.000  0.247-  10 2.36  13 2.37  15 2.37   9 2.50
  33  0.746  0.000  0.247-  10 2.36  14 2.37  16 2.37   9 2.50
  34  0.253  0.500  0.249-  12 2.32  11 2.40  13 2.42  15 2.42
  35  0.747  0.500  0.249-  12 2.32  11 2.40  14 2.42  16 2.42
  36  0.000  0.254  0.247-  11 2.36  13 2.37  14 2.37   9 2.50
  37  0.500  0.253  0.249-  12 2.32  10 2.40  13 2.42  14 2.42
  38  0.000  0.746  0.247-  11 2.36  15 2.37  16 2.37   9 2.50
  39  0.500  0.747  0.249-  12 2.32  10 2.40  15 2.42  16 2.42
  40  0.000  0.000  0.000-
 
  LATTYP: Found a simple tetragonal cell.
 ALAT       =     8.1537654106
 C/A-ratio  =     1.5781187256
  
  Lattice vectors:
  
 A1 = (   8.1537654106,   0.0000000000,   0.0000000000)
 A2 = (   0.0000000000,   8.1537654106,   0.0000000000)
 A3 = (   0.0000000000,   0.0000000000,  12.8676098787)


Analysis of symmetry for initial positions (statically):
=====================================================================
 Subroutine PRICEL returns:
 Original cell was already a primitive cell.
 

 Routine SETGRP: Setting up the symmetry group for a 
 simple tetragonal supercell.


 Subroutine GETGRP returns: Found 16 space group operations
 (whereof 16 operations were pure point group operations)
 out of a pool of 16 trial point group operations.


The static configuration has the point symmetry D_4h.


Analysis of symmetry for dynamics (positions and initial velocities):
=====================================================================
 Subroutine PRICEL returns:
 Original cell was already a primitive cell.
 

 Routine SETGRP: Setting up the symmetry group for a 
 simple tetragonal supercell.


 Subroutine GETGRP returns: Found 16 space group operations
 (whereof 16 operations were pure point group operations)
 out of a pool of 16 trial point group operations.


The dynamic configuration has the point symmetry D_4h.


 Subroutine INISYM returns: Found 16 space group operations
 (whereof 16 operations are pure point group operations),
 and found     1 'primitive' translations


----------------------------------------------------------------------------------------

                                     Primitive cell                                     

  volume of cell :     855.4888

  direct lattice vectors                    reciprocal lattice vectors
     8.153765411  0.000000000  0.000000000     0.122642724  0.000000000  0.000000000
     0.000000000  8.153765411  0.000000000     0.000000000  0.122642724  0.000000000
     0.000000000  0.000000000 12.867609879     0.000000000  0.000000000  0.077714510

  length of vectors
     8.153765411  8.153765411 12.867609879     0.122642724  0.122642724  0.077714510

  position of ions in fractional coordinates (direct lattice)
     0.246874162  0.246874162  0.849242874
     0.753125838  0.246874162  0.849242874
     0.246874162  0.753125838  0.849242874
     0.753125838  0.753125838  0.849242874
     0.000000000  0.000000000  0.644158160
     0.500000000  0.000000000  0.655784282
     0.000000000  0.500000000  0.655784282
     0.500000000  0.500000000  0.661741949
     0.000000000  0.000000000  0.355841840
     0.500000000  0.000000000  0.344215718
     0.000000000  0.500000000  0.344215718
     0.500000000  0.500000000  0.338258051
     0.246874162  0.246874162  0.150757126
     0.753125838  0.246874162  0.150757126
     0.246874162  0.753125838  0.150757126
     0.753125838  0.753125838  0.150757126
     0.500000000  0.000000000  0.000000000
     0.000000000  0.500000000  0.000000000
     0.500000000  0.500000000  0.000000000
     0.235076606  0.235076606  0.500000000
     0.764923394  0.235076606  0.500000000
     0.235076606  0.764923394  0.500000000
     0.764923394  0.764923394  0.500000000
     0.000000000  0.253971272  0.752854819
     0.500000000  0.252549535  0.751139337
     0.000000000  0.746028728  0.752854819
     0.500000000  0.747450465  0.751139337
     0.253971272  0.000000000  0.752854819
     0.746028728  0.000000000  0.752854819
     0.252549535  0.500000000  0.751139337
     0.747450465  0.500000000  0.751139337
     0.253971272  0.000000000  0.247145181
     0.746028728  0.000000000  0.247145181
     0.252549535  0.500000000  0.248860663
     0.747450465  0.500000000  0.248860663
     0.000000000  0.253971272  0.247145181
     0.500000000  0.252549535  0.248860663
     0.000000000  0.746028728  0.247145181
     0.500000000  0.747450465  0.248860663
     0.000000000  0.000000000  0.000000000

  ion indices of the primitive-cell ions
   primitive index   ion index
                 1           1
                 2           2
                 3           3
                 4           4
                 5           5
                 6           6
                 7           7
                 8           8
                 9           9
                10          10
                11          11
                12          12
                13          13
                14          14
                15          15
                16          16
                17          17
                18          18
                19          19
                20          20
                21          21
                22          22
                23          23
                24          24
                25          25
                26          26
                27          27
                28          28
                29          29
                30          30
                31          31
                32          32
                33          33
                34          34
                35          35
                36          36
                37          37
                38          38
                39          39
                40          40

----------------------------------------------------------------------------------------

 
 
 KPOINTS: K-Spacing Value to Generate K-Mesh: 0.03

Automatic generation of k-mesh.
 Grid dimensions read from file:
 generate k-points for:    4    4    3

 Generating k-lattice:

  Cartesian coordinates                     Fractional coordinates (reciprocal lattice)
     0.030660681  0.000000000  0.000000000     0.250000000  0.000000000  0.000000000
     0.000000000  0.030660681  0.000000000     0.000000000  0.250000000  0.000000000
     0.000000000  0.000000000  0.025904837     0.000000000  0.000000000  0.333333333

  Length of vectors
     0.030660681  0.030660681  0.025904837

  Shift w.r.t. Gamma in fractional coordinates (k-lattice)
     0.000000000  0.000000000  0.000000000

 
 Subroutine IBZKPT returns following result:
 ===========================================
 
 Found     12 irreducible k-points:
 
 Following reciprocal coordinates:
            Coordinates               Weight
  0.000000  0.000000  0.000000      1.000000
  0.250000  0.000000  0.000000      4.000000
  0.500000  0.000000  0.000000      2.000000
  0.250000  0.250000  0.000000      4.000000
  0.500000  0.250000  0.000000      4.000000
  0.500000  0.500000  0.000000      1.000000
  0.000000  0.000000  0.333333      2.000000
  0.250000  0.000000  0.333333      8.000000
  0.500000  0.000000  0.333333      4.000000
  0.250000  0.250000  0.333333      8.000000
  0.500000  0.250000  0.333333      8.000000
  0.500000  0.500000  0.333333      2.000000
 
 Following cartesian coordinates:
            Coordinates               Weight
  0.000000  0.000000  0.000000      1.000000
  0.031887  0.000000  0.000000      4.000000
  0.063774  0.000000  0.000000      2.000000
  0.031887  0.031887  0.000000      4.000000
  0.063774  0.031887  0.000000      4.000000
  0.063774  0.063774  0.000000      1.000000
  0.000000  0.000000  0.026941      2.000000
  0.031887  0.000000  0.026941      8.000000
  0.063774  0.000000  0.026941      4.000000
  0.031887  0.031887  0.026941      8.000000
  0.063774  0.031887  0.026941      8.000000
  0.063774  0.063774  0.026941      2.000000
 


--------------------------------------------------------------------------------------------------------




 Dimension of arrays:
   k-points           NKPTS =     12   k-points in BZ     NKDIM =     12   number of bands    NBANDS=    232
   number of dos      NEDOS =    301   number of ions     NIONS =     40
   non local maximal  LDIM  =      6   non local SUM 2l+1 LMDIM =     18
   total plane-waves  NPLWV = 393216
   max r-space proj   IRMAX =      1   max aug-charges    IRDMAX= 162686
   dimension x,y,z NGX =    64 NGY =   64 NGZ =   96
   dimension x,y,z NGXF=   128 NGYF=  128 NGZF=  192
   support grid    NGXF=   256 NGYF=  256 NGZF=  384
   ions per type =              16   7  16   1
   NGX,Y,Z   is equivalent  to a cutoff of  13.05, 13.05, 12.40 a.u.
   NGXF,Y,Z  is equivalent  to a cutoff of  26.10, 26.10, 24.81 a.u.

 SYSTEM =  unknown system                          
 POSCAR =  generated by phonopy                    

 Startparameter for this run:
   NWRITE =      2    write-flag & timer
   PREC   = accura    normal or accurate (medium, high low for compatibility)
   ISTART =      0    job   : 0-new  1-cont  2-samecut
   ICHARG =      2    charge: 1-file 2-atom 10-const
   ISPIN  =      1    spin polarized calculation?
   LNONCOLLINEAR =      F non collinear calculations
   LSORBIT =      F    spin-orbit coupling
   INIWAV =      1    electr: 0-lowe 1-rand  2-diag
   LASPH  =      F    aspherical Exc in radial PAW
 Electronic Relaxation 1
   ENCUT  =  520.0 eV  38.22 Ry    6.18 a.u.  15.16 15.16 23.93*2*pi/ulx,y,z
   ENINI  =  520.0     initial cutoff
   ENAUG  =  605.4 eV  augmentation charge cutoff
   NELM   =     60;   NELMIN=  5; NELMDL= -5     # of ELM steps 
   EDIFF  = 0.1E-07   stopping-criterion for ELM
   LREAL  =      F    real-space projection
   NLSPLINE    = F    spline interpolate recip. space projectors
   LCOMPAT=      F    compatible to vasp.4.4
   GGA_COMPAT  = T    GGA compatible to vasp.4.4-vasp.4.6
   LMAXPAW     = -100 max onsite density
   LMAXMIX     =    2 max onsite mixed and CHGCAR
   VOSKOWN=      0    Vosko Wilk Nusair interpolation
   ROPT   =    0.00000   0.00000   0.00000   0.00000
 Ionic relaxation
   EDIFFG = -.1E-04   stopping-criterion for IOM
   NSW    =    100    number of steps for IOM
   NBLOCK =      1;   KBLOCK =    100    inner block; outer block 
   IBRION =      2    ionic relax: 0-MD 1-quasi-New 2-CG
   NFREE  =      1    steps in history (QN), initial steepest desc. (CG)
   ISIF   =      2    stress and relaxation
   IWAVPR =     11    prediction:  0-non 1-charg 2-wave 3-comb
   ISYM   =      2    0-nonsym 1-usesym 2-fastsym
   LCORR  =      T    Harris-Foulkes like correction to forces

   POTIM  = 0.5000    time-step for ionic-motion
   TEIN   =    0.0    initial temperature
   TEBEG  =    0.0;   TEEND  =   0.0 temperature during run
   SMASS  =  -3.00    Nose mass-parameter (am)
   estimated Nose-frequenzy (Omega)   =  0.10E-29 period in steps = 0.13E+47 mass=  -0.152E-26a.u.
   SCALEE = 1.0000    scale energy and forces
   NPACO  =    256;   APACO  = 10.0  distance and # of slots for P.C.
   PSTRESS=    0.0 pullay stress

  Mass of Ions in am
   POMASS = 208.98 78.96 16.00 32.07
  Ionic Valenz
   ZVAL   =  15.00  6.00  6.00  6.00
  Atomic Wigner-Seitz radii
   RWIGS  =  -1.00 -1.00 -1.00 -1.00
  virtual crystal weights 
   VCA    =   1.00  1.00  1.00  1.00
   NELECT =     384.0000    total number of electrons
   NUPDOWN=      -1.0000    fix difference up-down

 DOS related values:
   EMIN   =  10.00;   EMAX   =-10.00  energy-range for DOS
   EFERMI =   0.00;   METHOD = LEGACY      
   ISMEAR =     0;   SIGMA  =   0.05  broadening in eV -4-tet -1-fermi 0-gaus

 Electronic relaxation 2 (details)
   IALGO  =     38    algorithm
   LDIAG  =      T    sub-space diagonalisation (order eigenvalues)
   LSUBROT=      F    optimize rotation matrix (better conditioning)
   TURBO    =      0    0=normal 1=particle mesh
   IRESTART =      0    0=no restart 2=restart with 2 vectors
   NREBOOT  =      0    no. of reboots
   NMIN     =      0    reboot dimension
   EREF     =   0.00    reference energy to select bands
   IMIX   =      4    mixing-type and parameters
     AMIX     =   0.40;   BMIX     =  1.00
     AMIX_MAG =   1.60;   BMIX_MAG =  1.00
     AMIN     =   0.10
     WC   =   100.;   INIMIX=   1;  MIXPRE=   1;  MAXMIX= -45

 Intra band minimization:
   WEIMIN = 0.0010     energy-eigenvalue tresh-hold
   EBREAK =  0.11E-10  absolut break condition
   DEPER  =   0.30     relativ break condition  

   TIME   =   0.40     timestep for ELM

  volume/ion in A,a.u.               =      21.39       144.33
  Fermi-wavevector in a.u.,A,eV,Ry     =   1.253470  2.368714 21.377284  1.571186
  Thomas-Fermi vector in A             =   2.387321
 
 Write flags
   LWAVE        =      F    write WAVECAR
   LDOWNSAMPLE  =      F    k-point downsampling of WAVECAR
   LCHARG       =      F    write CHGCAR
   LVTOT        =      F    write LOCPOT, total local potential
   LVHAR        =      F    write LOCPOT, Hartree potential only
   WRT_POTENTIAL= false  ! write potential to hdf5 file
   LELF         =      F    write electronic localiz. function (ELF)
   LORBIT       =      0    0 simple, 1 ext, 2 COOP (PROOUT), +10 PAW based schemes


 Dipole corrections
   LMONO      =      F    monopole corrections only (constant potential shift)
   LDIPOL     =      F    correct potential (dipole corrections)
   IDIPOL     =      0    1-x, 2-y, 3-z, 4-all directions 
   EPSILON    =  1.0000000 bulk dielectric constant
   LVACPOTAV  =      F  vacuum potentials using an averaging scheme for the charge density
   VACPOTFLAT =  0.1000000 required flatness to determine vacuum potential
 Exchange correlation treatment:
   GGA     = PE    functional components
   XC_C    = 1    coefficients multiplying the functional components
   LIBXC   =     F    Libxc                    
   VOSKOWN =     0    Vosko Wilk Nusair interpolation
   LHFCALC =     F    Hartree Fock is set to
   LHFONE  =     F    Hartree Fock one center treatment
   AEXX    =    0.0000 exact exchange contribution

 Parameters of functionals:
   PE:
     No parameter
 
 Van der Waals corrections
   IVDW    =     0    specifies the selected vdW correction

 Linear response parameters
   LEPSILON=     F    determine dielectric tensor
   LRPA    =     F    only Hartree local field effects (RPA)
   LNABLA  =     F    use nabla operator in PAW spheres
   LVEL    =     F    velocity operator in full k-point grid
   CSHIFT  =0.1000    complex shift for real part using Kramers Kronig
   OMEGAMAX=  -1.0    maximum frequency
   DEG_THRESHOLD= 0.2000000E-02 threshold for treating states as degnerate
   RTIME   =   -0.100 relaxation time in fs
  (WPLASMAI=    0.000 imaginary part of plasma frequency in eV, 0.658/RTIME)
   DFIELD  = 0.0000000 0.0000000 0.0000000 field for delta impulse in time
 
  Optional k-point grid parameters
   LKPOINTS_OPT  =     F    use optional k-point grid
   KPOINTS_OPT_MODE=     1    mode for optional k-point grid
 
 Orbital magnetization related:
   ORBITALMAG=     F  switch on orbital magnetization
   LCHIMAG   =     F  perturbation theory with respect to B field
   DQ        =  0.001000  dq finite difference perturbation B field
   LLRAUG    =     F  two centre corrections for induced B field
   LBONE     =     F  B-component reconstruction in AE one-centre
   LVGVCALC  =     T  calculate vGv susceptibility
   LVGVAPPL  =     F  apply vGv susceptibility instead of pGv for G=0

 Random number generation:
   RANDOM_GENERATOR = DEFAULT
   PCG_SEED         = not used


--------------------------------------------------------------------------------------------------------


 conjugate gradient relaxation of ions
 charge density and potential will be updated during run
 non-spin polarized calculation
 Variant of blocked Davidson
 Davidson routine will perform the subspace rotation
 perform sub-space diagonalisation
    after iterative eigenvector-optimisation
 modified Broyden-mixing scheme, WC =      100.0
 initial mixing is a Kerker type mixing with AMIX =  0.4000 and BMIX =      1.0000
 Hartree-type preconditioning will be used
 using additional bands           40
 reciprocal scheme for non local part
 use partial core corrections
 calculate Harris-corrections to forces 
   (improved forces if not selfconsistent)
 use gradient corrections 
 use of overlap-Matrix (Vanderbilt PP)
 Gauss-broadening in eV      SIGMA  =   0.05


--------------------------------------------------------------------------------------------------------


  energy-cutoff  :      520.00
  volume of cell :      855.49
      direct lattice vectors                 reciprocal lattice vectors
     8.153765411  0.000000000  0.000000000     0.122642724  0.000000000  0.000000000
     0.000000000  8.153765411  0.000000000     0.000000000  0.122642724  0.000000000
     0.000000000  0.000000000 12.867609879     0.000000000  0.000000000  0.077714510

  length of vectors
     8.153765411  8.153765411 12.867609879     0.122642724  0.122642724  0.077714510


 
 k-points in units of 2pi/SCALE and weight: K-Spacing Value to Generate K-Mesh: 0.03
   0.00000000  0.00000000  0.00000000       0.021
   0.03188711  0.00000000  0.00000000       0.083
   0.06377422  0.00000000  0.00000000       0.042
   0.03188711  0.03188711  0.00000000       0.083
   0.06377422  0.03188711  0.00000000       0.083
   0.06377422  0.06377422  0.00000000       0.021
   0.00000000  0.00000000  0.02694103       0.042
   0.03188711  0.00000000  0.02694103       0.167
   0.06377422  0.00000000  0.02694103       0.083
   0.03188711  0.03188711  0.02694103       0.167
   0.06377422  0.03188711  0.02694103       0.167
   0.06377422  0.06377422  0.02694103       0.042
 
 k-points in reciprocal lattice and weights: K-Spacing Value to Generate K-Mesh: 0.03
   0.00000000  0.00000000  0.00000000       0.021
   0.25000000  0.00000000  0.00000000       0.083
   0.50000000  0.00000000  0.00000000       0.042
   0.25000000  0.25000000  0.00000000       0.083
   0.50000000  0.25000000  0.00000000       0.083
   0.50000000  0.50000000  0.00000000       0.021
   0.00000000  0.00000000  0.33333333       0.042
   0.25000000  0.00000000  0.33333333       0.167
   0.50000000  0.00000000  0.33333333       0.083
   0.25000000  0.25000000  0.33333333       0.167
   0.50000000  0.25000000  0.33333333       0.167
   0.50000000  0.50000000  0.33333333       0.042
 
 position of ions in fractional coordinates (direct lattice) 
   0.24687416  0.24687416  0.84924287
   0.75312584  0.24687416  0.84924287
   0.24687416  0.75312584  0.84924287
   0.75312584  0.75312584  0.84924287
   0.00000000  0.00000000  0.64415816
   0.50000000  0.00000000  0.65578428
   0.00000000  0.50000000  0.65578428
   0.50000000  0.50000000  0.66174195
   0.00000000  0.00000000  0.35584184
   0.50000000  0.00000000  0.34421572
   0.00000000  0.50000000  0.34421572
   0.50000000  0.50000000  0.33825805
   0.24687416  0.24687416  0.15075713
   0.75312584  0.24687416  0.15075713
   0.24687416  0.75312584  0.15075713
   0.75312584  0.75312584  0.15075713
   0.50000000  0.00000000  0.00000000
   0.00000000  0.50000000  0.00000000
   0.50000000  0.50000000  0.00000000
   0.23507661  0.23507661  0.50000000
   0.76492339  0.23507661  0.50000000
   0.23507661  0.76492339  0.50000000
   0.76492339  0.76492339  0.50000000
   0.00000000  0.25397127  0.75285482
   0.50000000  0.25254954  0.75113934
   0.00000000  0.74602873  0.75285482
   0.50000000  0.74745046  0.75113934
   0.25397127  0.00000000  0.75285482
   0.74602873  0.00000000  0.75285482
   0.25254954  0.50000000  0.75113934
   0.74745046  0.50000000  0.75113934
   0.25397127  0.00000000  0.24714518
   0.74602873  0.00000000  0.24714518
   0.25254954  0.50000000  0.24886066
   0.74745046  0.50000000  0.24886066
   0.00000000  0.25397127  0.24714518
   0.50000000  0.25254954  0.24886066
   0.00000000  0.74602873  0.24714518
   0.50000000  0.74745046  0.24886066
   0.00000000  0.00000000  0.00000000
 
 position of ions in cartesian coordinates  (Angst):
   2.01295400  2.01295400 10.92772599
   6.14081141  2.01295400 10.92772599
   2.01295400  6.14081141 10.92772599
   6.14081141  6.14081141 10.92772599
   0.00000000  0.00000000  8.28877591
   4.07688271  0.00000000  8.43837631
   0.00000000  4.07688271  8.43837631
   4.07688271  4.07688271  8.51503723
   0.00000000  0.00000000  4.57883397
   4.07688271  0.00000000  4.42923357
   0.00000000  4.07688271  4.42923357
   4.07688271  4.07688271  4.35257264
   2.01295400  2.01295400  1.93988388
   6.14081141  2.01295400  1.93988388
   2.01295400  6.14081141  1.93988388
   6.14081141  6.14081141  1.93988388
   4.07688271  0.00000000  0.00000000
   0.00000000  4.07688271  0.00000000
   4.07688271  4.07688271  0.00000000
   1.91675950  1.91675950  6.43380494
   6.23700592  1.91675950  6.43380494
   1.91675950  6.23700592  6.43380494
   6.23700592  6.23700592  6.43380494
   0.00000000  2.07082218  9.68744210
   4.07688271  2.05922967  9.66536796
   0.00000000  6.08294324  9.68744210
   4.07688271  6.09453574  9.66536796
   2.07082218  0.00000000  9.68744210
   6.08294324  0.00000000  9.68744210
   2.05922967  4.07688271  9.66536796
   6.09453574  4.07688271  9.66536796
   2.07082218  0.00000000  3.18016778
   6.08294324  0.00000000  3.18016778
   2.05922967  4.07688271  3.20224192
   6.09453574  4.07688271  3.20224192
   0.00000000  2.07082218  3.18016778
   4.07688271  2.05922967  3.20224192
   0.00000000  6.08294324  3.18016778
   4.07688271  6.09453574  3.20224192
   0.00000000  0.00000000  0.00000000
 


--------------------------------------------------------------------------------------------------------


 k-point     1 :   0.0000 0.0000 0.0000  plane waves:   23035
 k-point     2 :   0.2500 0.0000 0.0000  plane waves:   23022
 k-point     3 :   0.5000 0.0000 0.0000  plane waves:   22994
 k-point     4 :   0.2500 0.2500 0.0000  plane waves:   23027
 k-point     5 :   0.5000 0.2500 0.0000  plane waves:   23046
 k-point     6 :   0.5000 0.5000 0.0000  plane waves:   22988
 k-point     7 :   0.0000 0.0000 0.3333  plane waves:   23020
 k-point     8 :   0.2500 0.0000 0.3333  plane waves:   23028
 k-point     9 :   0.5000 0.0000 0.3333  plane waves:   23042
 k-point    10 :   0.2500 0.2500 0.3333  plane waves:   23044
 k-point    11 :   0.5000 0.2500 0.3333  plane waves:   23044
 k-point    12 :   0.5000 0.5000 0.3333  plane waves:   23068

 maximum and minimum number of plane-waves per node :      2586     2534

 maximum number of plane-waves:     23068
 maximum index in each direction: 
   IXMAX=   15   IYMAX=   15   IZMAX=   23
   IXMIN=  -15   IYMIN=  -15   IZMIN=  -24


 parallel 3D FFT for wavefunctions:
    minimum data exchange during FFTs selected (reduces bandwidth)
 parallel 3D FFT for charge:
    minimum data exchange during FFTs selected (reduces bandwidth)


 total amount of memory used by VASP MPI-rank0   103452. kBytes
=======================================================================

   base      :      30000. kBytes
   nonl-proj :      19423. kBytes
   fftplans  :      15444. kBytes
   grid      :       9109. kBytes
   one-center:         77. kBytes
   wavefun   :      29399. kBytes
 
     INWAV:  cpu time      0.0000: real time      0.0000
 Broyden mixing: mesh for mixing (old mesh)
   NGX = 31   NGY = 31   NGZ = 47
  (NGX  =128   NGY  =128   NGZ  =192)
  gives a total of  45167 points

 initial charge density was supplied:
 charge density of overlapping atoms calculated
 number of electron     384.0000000 magnetization 
 keeping initial charge density in first step


--------------------------------------------------------------------------------------------------------


 Maximum index for augmentation-charges         6887 (set IRDMAX)


--------------------------------------------------------------------------------------------------------


 First call to EWALD:  gamma=   0.187
 Maximum number of real-space cells 3x 3x 2
 Maximum number of reciprocal cells 2x 2x 4

    FEWALD:  cpu time      0.0020: real time      0.0020


--------------------------------------- Ionic step        1  -------------------------------------------




--------------------------------------- Iteration      1(   1)  ---------------------------------------


    POTLOK:  cpu time      0.2218: real time      0.2218
    SETDIJ:  cpu time      0.7149: real time      0.7154
     EDDAV:  cpu time     38.4642: real time     38.4768
       DOS:  cpu time      0.0018: real time      0.0019
    --------------------------------------------
      LOOP:  cpu time     39.4028: real time     39.4158

 eigenvalue-minimisations  :  5568
 total energy-change (2. order) : 0.5325069E+04  (-0.1771712E+05)
 number of electron     384.0000000 magnetization 
 augmentation part      384.0000000 magnetization 

 Free energy of the ion-electron system (eV)
  ---------------------------------------------------
  alpha Z        PSCENC =      1180.79420070
  Ewald energy   TEWEN  =    -27711.27472275
  -Hartree energ DENC   =    -12528.45486114
  -exchange      EXHF   =         0.00000000
  -V(xc)+E(xc)   XCENC  =      1225.21198948
  PAW double counting   =     34040.00696010   -33495.80632930
  entropy T*S    EENTRO =        -0.01053222
  eigenvalues    EBANDS =      2272.95074085
  atomic energy  EATOM  =     40341.65184589
  Solvation  Ediel_sol  =         0.00000000
  ---------------------------------------------------
  free energy    TOTEN  =      5325.06929163 eV

  energy without entropy =     5325.07982385  energy(sigma->0) =     5325.07455774


--------------------------------------------------------------------------------------------------------




--------------------------------------- Iteration      1(   2)  ---------------------------------------


     EDDAV:  cpu time     38.5491: real time     38.5615
       DOS:  cpu time      0.0018: real time      0.0019
    --------------------------------------------
      LOOP:  cpu time     38.5509: real time     38.5634

 eigenvalue-minimisations  :  5592
 total energy-change (2. order) :-0.4467014E+04  (-0.4333400E+04)
 number of electron     384.0000000 magnetization 
 augmentation part      384.0000000 magnetization 

 Free energy of the ion-electron system (eV)
  ---------------------------------------------------
  alpha Z        PSCENC =      1180.79420070
  Ewald energy   TEWEN  =    -27711.27472275
  -Hartree energ DENC   =    -12528.45486114
  -exchange      EXHF   =         0.00000000
  -V(xc)+E(xc)   XCENC  =      1225.21198948
  PAW double counting   =     34040.00696010   -33495.80632930
  entropy T*S    EENTRO =        -0.00744281
  eigenvalues    EBANDS =     -2194.06631255
  atomic energy  EATOM  =     40341.65184589
  Solvation  Ediel_sol  =         0.00000000
  ---------------------------------------------------
  free energy    TOTEN  =       858.05532764 eV

  energy without entropy =      858.06277045  energy(sigma->0) =      858.05904904


--------------------------------------------------------------------------------------------------------




--------------------------------------- Iteration      1(   3)  ---------------------------------------


     EDDAV:  cpu time     41.7843: real time     41.7929
       DOS:  cpu time      0.0020: real time      0.0021
    --------------------------------------------
      LOOP:  cpu time     41.7863: real time     41.7950

 eigenvalue-minimisations  :  6256
 total energy-change (2. order) :-0.9852482E+03  (-0.9220736E+03)
 number of electron     384.0000000 magnetization 
 augmentation part      384.0000000 magnetization 

 Free energy of the ion-electron system (eV)
  ---------------------------------------------------
  alpha Z        PSCENC =      1180.79420070
  Ewald energy   TEWEN  =    -27711.27472275
  -Hartree energ DENC   =    -12528.45486114
  -exchange      EXHF   =         0.00000000
  -V(xc)+E(xc)   XCENC  =      1225.21198948
  PAW double counting   =     34040.00696010   -33495.80632930
  entropy T*S    EENTRO =        -0.00000000
  eigenvalues    EBANDS =     -3179.32198785
  atomic energy  EATOM  =     40341.65184589
  Solvation  Ediel_sol  =         0.00000000
  ---------------------------------------------------
  free energy    TOTEN  =      -127.19290486 eV

  energy without entropy =     -127.19290486  energy(sigma->0) =     -127.19290486


--------------------------------------------------------------------------------------------------------




--------------------------------------- Iteration      1(   4)  ---------------------------------------


     EDDAV:  cpu time     43.2001: real time     43.2086
       DOS:  cpu time      0.0015: real time      0.0016
    --------------------------------------------
      LOOP:  cpu time     43.2016: real time     43.2103

 eigenvalue-minimisations  :  6544
 total energy-change (2. order) :-0.1105965E+03  (-0.1073756E+03)
 number of electron     384.0000000 magnetization 
 augmentation part      384.0000000 magnetization 

 Free energy of the ion-electron system (eV)
  ---------------------------------------------------
  alpha Z        PSCENC =      1180.79420070
  Ewald energy   TEWEN  =    -27711.27472275
  -Hartree energ DENC   =    -12528.45486114
  -exchange      EXHF   =         0.00000000
  -V(xc)+E(xc)   XCENC  =      1225.21198948
  PAW double counting   =     34040.00696010   -33495.80632930
  entropy T*S    EENTRO =        -0.00000000
  eigenvalues    EBANDS =     -3289.91844807
  atomic energy  EATOM  =     40341.65184589
  Solvation  Ediel_sol  =         0.00000000
  ---------------------------------------------------
  free energy    TOTEN  =      -237.78936507 eV

  energy without entropy =     -237.78936507  energy(sigma->0) =     -237.78936507


--------------------------------------------------------------------------------------------------------




--------------------------------------- Iteration      1(   5)  ---------------------------------------


     EDDAV:  cpu time     45.2455: real time     45.2456
       DOS:  cpu time      0.0016: real time      0.0016
    CHARGE:  cpu time      1.4174: real time      1.4176
    MIXING:  cpu time      0.0077: real time      0.0077
    --------------------------------------------
      LOOP:  cpu time     46.6721: real time     46.6725

 eigenvalue-minimisations  :  6960
 total energy-change (2. order) :-0.5456904E+01  (-0.5396197E+01)
 number of electron     384.0000006 magnetization 
 augmentation part       98.6126448 magnetization 

 Broyden mixing:
  rms(total) = 0.34598E+01    rms(broyden)= 0.34590E+01
  rms(prec ) = 0.43938E+01
  weight for this iteration     100.00

 Free energy of the ion-electron system (eV)
  ---------------------------------------------------
  alpha Z        PSCENC =      1180.79420070
  Ewald energy   TEWEN  =    -27711.27472275
  -Hartree energ DENC   =    -12528.45486114
  -exchange      EXHF   =         0.00000000
  -V(xc)+E(xc)   XCENC  =      1225.21198948
  PAW double counting   =     34040.00696010   -33495.80632930
  entropy T*S    EENTRO =        -0.00000000
  eigenvalues    EBANDS =     -3295.37535179
  atomic energy  EATOM  =     40341.65184589
  Solvation  Ediel_sol  =         0.00000000
  ---------------------------------------------------
  free energy    TOTEN  =      -243.24626880 eV

  energy without entropy =     -243.24626880  energy(sigma->0) =     -243.24626880


--------------------------------------------------------------------------------------------------------




--------------------------------------- Iteration      1(   6)  ---------------------------------------


    POTLOK:  cpu time      0.2152: real time      0.2153
    SETDIJ:  cpu time      0.7128: real time      0.7129
     EDDAV:  cpu time     47.5331: real time     47.5568
       DOS:  cpu time      0.0016: real time      0.0017
    CHARGE:  cpu time      1.4176: real time      1.4180
    MIXING:  cpu time      0.0078: real time      0.0078
    --------------------------------------------
      LOOP:  cpu time     49.8881: real time     49.9125

 eigenvalue-minimisations  :  7432
 total energy-change (2. order) : 0.3567427E+02  (-0.1648599E+02)
 number of electron     384.0000006 magnetization 
 augmentation part       94.8857796 magnetization 

 Broyden mixing:
  rms(total) = 0.15371E+01    rms(broyden)= 0.15349E+01
  rms(prec ) = 0.18217E+01
  weight for this iteration     100.00

 eigenvalues of (default mixing * dielectric matrix)
  average eigenvalue GAMMA=   0.7236
  0.7236

 Free energy of the ion-electron system (eV)
  ---------------------------------------------------
  alpha Z        PSCENC =      1180.79420070
  Ewald energy   TEWEN  =    -27711.27472275
  -Hartree energ DENC   =    -12769.83303776
  -exchange      EXHF   =         0.00000000
  -V(xc)+E(xc)   XCENC  =      1245.59092494
  PAW double counting   =     34397.62849132   -33805.09641403
  entropy T*S    EENTRO =        -0.00000000
  eigenvalues    EBANDS =     -3087.03328541
  atomic energy  EATOM  =     40341.65184589
  Solvation  Ediel_sol  =         0.00000000
  ---------------------------------------------------
  free energy    TOTEN  =      -207.57199709 eV

  energy without entropy =     -207.57199709  energy(sigma->0) =     -207.57199709


--------------------------------------------------------------------------------------------------------




--------------------------------------- Iteration      1(   7)  ---------------------------------------


    POTLOK:  cpu time      0.2159: real time      0.2163
    SETDIJ:  cpu time      0.7270: real time      0.7276
     EDDAV:  cpu time     41.3181: real time     41.3514
       DOS:  cpu time      0.0025: real time      0.0026
    CHARGE:  cpu time      1.4190: real time      1.4205
    MIXING:  cpu time      0.0077: real time      0.0077
    --------------------------------------------
      LOOP:  cpu time     43.6902: real time     43.7261

 eigenvalue-minimisations  :  6160
 total energy-change (2. order) : 0.1048539E+01  (-0.2920848E+01)
 number of electron     384.0000006 magnetization 
 augmentation part       94.9976809 magnetization 

 Broyden mixing:
  rms(total) = 0.79227E+00    rms(broyden)= 0.79227E+00
  rms(prec ) = 0.86601E+00
  weight for this iteration     100.00

 eigenvalues of (default mixing * dielectric matrix)
  average eigenvalue GAMMA=   1.1294
  0.9485  1.3103

 Free energy of the ion-electron system (eV)
  ---------------------------------------------------
  alpha Z        PSCENC =      1180.79420070
  Ewald energy   TEWEN  =    -27711.27472275
  -Hartree energ DENC   =    -12663.96462165
  -exchange      EXHF   =         0.00000000
  -V(xc)+E(xc)   XCENC  =      1241.07785804
  PAW double counting   =     34945.88214958   -34346.26524546
  entropy T*S    EENTRO =        -0.00189293
  eigenvalues    EBANDS =     -3194.42302977
  atomic energy  EATOM  =     40341.65184589
  Solvation  Ediel_sol  =         0.00000000
  ---------------------------------------------------
  free energy    TOTEN  =      -206.52345836 eV

  energy without entropy =     -206.52156542  energy(sigma->0) =     -206.52251189


--------------------------------------------------------------------------------------------------------




--------------------------------------- Iteration      1(   8)  ---------------------------------------


    POTLOK:  cpu time      0.2179: real time      0.2181
    SETDIJ:  cpu time      0.7167: real time      0.7173
     EDDAV:  cpu time     47.7127: real time     47.7520
       DOS:  cpu time      0.0025: real time      0.0026
    CHARGE:  cpu time      1.4184: real time      1.4199
    MIXING:  cpu time      0.0079: real time      0.0079
    --------------------------------------------
      LOOP:  cpu time     50.0760: real time     50.1178

 eigenvalue-minimisations  :  7480
 total energy-change (2. order) :-0.1474143E+00  (-0.5699347E+00)
 number of electron     384.0000006 magnetization 
 augmentation part       95.3133039 magnetization 

 Broyden mixing:
  rms(total) = 0.32785E+00    rms(broyden)= 0.32763E+00
  rms(prec ) = 0.38338E+00
  weight for this iteration     100.00

 eigenvalues of (default mixing * dielectric matrix)
  average eigenvalue GAMMA=   1.2864
  2.1576  0.8508  0.8508

 Free energy of the ion-electron system (eV)
  ---------------------------------------------------
  alpha Z        PSCENC =      1180.79420070
  Ewald energy   TEWEN  =    -27711.27472275
  -Hartree energ DENC   =    -12653.78043092
  -exchange      EXHF   =         0.00000000
  -V(xc)+E(xc)   XCENC  =      1240.22925464
  PAW double counting   =     35212.62752490   -34606.42843562
  entropy T*S    EENTRO =        -0.00187117
  eigenvalues    EBANDS =     -3210.48823837
  atomic energy  EATOM  =     40341.65184589
  Solvation  Ediel_sol  =         0.00000000
  ---------------------------------------------------
  free energy    TOTEN  =      -206.67087269 eV

  energy without entropy =     -206.66900152  energy(sigma->0) =     -206.66993711


--------------------------------------------------------------------------------------------------------




--------------------------------------- Iteration      1(   9)  ---------------------------------------


    POTLOK:  cpu time      0.2185: real time      0.2186
    SETDIJ:  cpu time      0.7008: real time      0.7008
     EDDAV:  cpu time     46.7171: real time     46.7220
       DOS:  cpu time      0.0023: real time      0.0024
    CHARGE:  cpu time      1.4148: real time      1.4159
    MIXING:  cpu time      0.0080: real time      0.0080
    --------------------------------------------
      LOOP:  cpu time     49.0614: real time     49.0677

 eigenvalue-minimisations  :  7264
 total energy-change (2. order) : 0.4194210E-01  (-0.5518506E-01)
 number of electron     384.0000006 magnetization 
 augmentation part       94.9868861 magnetization 

 Broyden mixing:
  rms(total) = 0.14311E+00    rms(broyden)= 0.14310E+00
  rms(prec ) = 0.17348E+00
  weight for this iteration     100.00

 eigenvalues of (default mixing * dielectric matrix)
  average eigenvalue GAMMA=   1.2736
  2.4197  0.8201  0.8201  1.0346

 Free energy of the ion-electron system (eV)
  ---------------------------------------------------
  alpha Z        PSCENC =      1180.79420070
  Ewald energy   TEWEN  =    -27711.27472275
  -Hartree energ DENC   =    -12673.56676912
  -exchange      EXHF   =         0.00000000
  -V(xc)+E(xc)   XCENC  =      1241.67141081
  PAW double counting   =     35522.98183576   -34910.91733773
  entropy T*S    EENTRO =        -0.00186403
  eigenvalues    EBANDS =     -3197.96753012
  atomic energy  EATOM  =     40341.65184589
  Solvation  Ediel_sol  =         0.00000000
  ---------------------------------------------------
  free energy    TOTEN  =      -206.62893059 eV

  energy without entropy =     -206.62706657  energy(sigma->0) =     -206.62799858


--------------------------------------------------------------------------------------------------------




--------------------------------------- Iteration      1(  10)  ---------------------------------------


    POTLOK:  cpu time      0.2146: real time      0.2150
    SETDIJ:  cpu time      0.7107: real time      0.7107
     EDDAV:  cpu time     46.4833: real time     46.5074
       DOS:  cpu time      0.0020: real time      0.0022
    CHARGE:  cpu time      1.4159: real time      1.4171
    MIXING:  cpu time      0.0083: real time      0.0083
    --------------------------------------------
      LOOP:  cpu time     48.8350: real time     48.8606

 eigenvalue-minimisations  :  7224
 total energy-change (2. order) : 0.1267253E-01  (-0.1816983E-01)
 number of electron     384.0000006 magnetization 
 augmentation part       94.9997173 magnetization 

 Broyden mixing:
  rms(total) = 0.42761E-01    rms(broyden)= 0.42730E-01
  rms(prec ) = 0.44789E-01
  weight for this iteration     100.00

 eigenvalues of (default mixing * dielectric matrix)
  average eigenvalue GAMMA=   1.1837
  2.3427  0.9472  0.9472  0.8408  0.8408

 Free energy of the ion-electron system (eV)
  ---------------------------------------------------
  alpha Z        PSCENC =      1180.79420070
  Ewald energy   TEWEN  =    -27711.27472275
  -Hartree energ DENC   =    -12664.53191447
  -exchange      EXHF   =         0.00000000
  -V(xc)+E(xc)   XCENC  =      1241.32236861
  PAW double counting   =     35592.69415600   -34980.31025202
  entropy T*S    EENTRO =        -0.00186688
  eigenvalues    EBANDS =     -3206.96007316
  atomic energy  EATOM  =     40341.65184589
  Solvation  Ediel_sol  =         0.00000000
  ---------------------------------------------------
  free energy    TOTEN  =      -206.61625806 eV

  energy without entropy =     -206.61439119  energy(sigma->0) =     -206.61532462


--------------------------------------------------------------------------------------------------------




--------------------------------------- Iteration      1(  11)  ---------------------------------------


    POTLOK:  cpu time      0.2159: real time      0.2161
    SETDIJ:  cpu time      0.7114: real time      0.7129
     EDDAV:  cpu time     48.3125: real time     48.3146
       DOS:  cpu time      0.0023: real time      0.0024
    CHARGE:  cpu time      1.4135: real time      1.4136
    MIXING:  cpu time      0.0084: real time      0.0084
    --------------------------------------------
      LOOP:  cpu time     50.6640: real time     50.6679

 eigenvalue-minimisations  :  7592
 total energy-change (2. order) :-0.2621016E-02  (-0.2111489E-02)
 number of electron     384.0000006 magnetization 
 augmentation part       94.9996028 magnetization 

 Broyden mixing:
  rms(total) = 0.31073E-01    rms(broyden)= 0.31070E-01
  rms(prec ) = 0.33211E-01
  weight for this iteration     100.00

 eigenvalues of (default mixing * dielectric matrix)
  average eigenvalue GAMMA=   1.3819
  2.1124  2.1124  0.8244  0.8244  1.2089  1.2089

 Free energy of the ion-electron system (eV)
  ---------------------------------------------------
  alpha Z        PSCENC =      1180.79420070
  Ewald energy   TEWEN  =    -27711.27472275
  -Hartree energ DENC   =    -12664.69765835
  -exchange      EXHF   =         0.00000000
  -V(xc)+E(xc)   XCENC  =      1241.35260436
  PAW double counting   =     35566.12575288   -34954.33517431
  entropy T*S    EENTRO =        -0.00187231
  eigenvalues    EBANDS =     -3206.23385518
  atomic energy  EATOM  =     40341.65184589
  Solvation  Ediel_sol  =         0.00000000
  ---------------------------------------------------
  free energy    TOTEN  =      -206.61887908 eV

  energy without entropy =     -206.61700677  energy(sigma->0) =     -206.61794292


--------------------------------------------------------------------------------------------------------




--------------------------------------- Iteration      1(  12)  ---------------------------------------


    POTLOK:  cpu time      0.2170: real time      0.2171
    SETDIJ:  cpu time      0.7138: real time      0.7138
     EDDAV:  cpu time     45.3723: real time     45.4588
       DOS:  cpu time      0.0024: real time      0.0025
    CHARGE:  cpu time      1.4100: real time      1.4141
    MIXING:  cpu time      0.0085: real time      0.0089
    --------------------------------------------
      LOOP:  cpu time     47.7241: real time     47.8153

 eigenvalue-minimisations  :  7008
 total energy-change (2. order) :-0.1528164E-02  (-0.5984805E-03)
 number of electron     384.0000006 magnetization 
 augmentation part       94.9725488 magnetization 

 Broyden mixing:
  rms(total) = 0.13469E-01    rms(broyden)= 0.13465E-01
  rms(prec ) = 0.16188E-01
  weight for this iteration     100.00

 eigenvalues of (default mixing * dielectric matrix)
  average eigenvalue GAMMA=   1.3669
  2.5243  2.5243  0.8098  0.8098  0.9977  0.9977  0.9045

 Free energy of the ion-electron system (eV)
  ---------------------------------------------------
  alpha Z        PSCENC =      1180.79420070
  Ewald energy   TEWEN  =    -27711.27472275
  -Hartree energ DENC   =    -12665.06531578
  -exchange      EXHF   =         0.00000000
  -V(xc)+E(xc)   XCENC  =      1241.42527723
  PAW double counting   =     35542.69818574   -34931.72418503
  entropy T*S    EENTRO =        -0.00187864
  eigenvalues    EBANDS =     -3205.12381461
  atomic energy  EATOM  =     40341.65184589
  Solvation  Ediel_sol  =         0.00000000
  ---------------------------------------------------
  free energy    TOTEN  =      -206.62040724 eV

  energy without entropy =     -206.61852860  energy(sigma->0) =     -206.61946792


--------------------------------------------------------------------------------------------------------




--------------------------------------- Iteration      1(  13)  ---------------------------------------


    POTLOK:  cpu time      0.2158: real time      0.2165
    SETDIJ:  cpu time      0.7159: real time      0.7169
     EDDAV:  cpu time     44.1591: real time     44.1623
       DOS:  cpu time      0.0020: real time      0.0021
    CHARGE:  cpu time      1.4148: real time      1.4150
    MIXING:  cpu time      0.0087: real time      0.0087
    --------------------------------------------
      LOOP:  cpu time     46.5163: real time     46.5215

 eigenvalue-minimisations  :  6736
 total energy-change (2. order) : 0.2668760E-04  (-0.5102508E-04)
 number of electron     384.0000006 magnetization 
 augmentation part       94.9709355 magnetization 

 Broyden mixing:
  rms(total) = 0.86328E-02    rms(broyden)= 0.86326E-02
  rms(prec ) = 0.10018E-01
  weight for this iteration     100.00

 eigenvalues of (default mixing * dielectric matrix)
  average eigenvalue GAMMA=   1.3555
  2.8000  2.4123  1.0852  1.0852  0.8608  0.8608  0.8699  0.8699

 Free energy of the ion-electron system (eV)
  ---------------------------------------------------
  alpha Z        PSCENC =      1180.79420070
  Ewald energy   TEWEN  =    -27711.27472275
  -Hartree energ DENC   =    -12664.82037321
  -exchange      EXHF   =         0.00000000
  -V(xc)+E(xc)   XCENC  =      1241.42627973
  PAW double counting   =     35531.79883693   -34921.09359590
  entropy T*S    EENTRO =        -0.00187923
  eigenvalues    EBANDS =     -3205.10097272
  atomic energy  EATOM  =     40341.65184589
  Solvation  Ediel_sol  =         0.00000000
  ---------------------------------------------------
  free energy    TOTEN  =      -206.62038056 eV

  energy without entropy =     -206.61850133  energy(sigma->0) =     -206.61944094


--------------------------------------------------------------------------------------------------------




--------------------------------------- Iteration      1(  14)  ---------------------------------------


    POTLOK:  cpu time      0.2160: real time      0.2162
    SETDIJ:  cpu time      0.7081: real time      0.7081
     EDDAV:  cpu time     44.3244: real time     44.3240
       DOS:  cpu time      0.0023: real time      0.0024
    CHARGE:  cpu time      1.4146: real time      1.4147
    MIXING:  cpu time      0.0089: real time      0.0089
    --------------------------------------------
      LOOP:  cpu time     46.6744: real time     46.6742

 eigenvalue-minimisations  :  6776
 total energy-change (2. order) : 0.5585929E-04  (-0.4643158E-04)
 number of electron     384.0000006 magnetization 
 augmentation part       94.9732841 magnetization 

 Broyden mixing:
  rms(total) = 0.32456E-02    rms(broyden)= 0.32428E-02
  rms(prec ) = 0.37122E-02
  weight for this iteration     100.00

 eigenvalues of (default mixing * dielectric matrix)
  average eigenvalue GAMMA=   1.3095
  2.7461  2.3334  1.1627  1.1627  0.9802  0.8223  0.8223  0.8779  0.8779

 Free energy of the ion-electron system (eV)
  ---------------------------------------------------
  alpha Z        PSCENC =      1180.79420070
  Ewald energy   TEWEN  =    -27711.27472275
  -Hartree energ DENC   =    -12664.60399835
  -exchange      EXHF   =         0.00000000
  -V(xc)+E(xc)   XCENC  =      1241.41363998
  PAW double counting   =     35529.87390301   -34919.17955869
  entropy T*S    EENTRO =        -0.00187792
  eigenvalues    EBANDS =     -3205.29375656
  atomic energy  EATOM  =     40341.65184589
  Solvation  Ediel_sol  =         0.00000000
  ---------------------------------------------------
  free energy    TOTEN  =      -206.62032470 eV

  energy without entropy =     -206.61844678  energy(sigma->0) =     -206.61938574


--------------------------------------------------------------------------------------------------------




--------------------------------------- Iteration      1(  15)  ---------------------------------------


    POTLOK:  cpu time      0.2190: real time      0.2191
    SETDIJ:  cpu time      0.7143: real time      0.7146
     EDDAV:  cpu time     47.1734: real time     47.1769
       DOS:  cpu time      0.0019: real time      0.0021
    CHARGE:  cpu time      1.4161: real time      1.4163
    MIXING:  cpu time      0.0092: real time      0.0092
    --------------------------------------------
      LOOP:  cpu time     49.5339: real time     49.5381

 eigenvalue-minimisations  :  7360
 total energy-change (2. order) : 0.5815515E-05  (-0.7891095E-05)
 number of electron     384.0000006 magnetization 
 augmentation part       94.9756158 magnetization 

 Broyden mixing:
  rms(total) = 0.10514E-02    rms(broyden)= 0.10498E-02
  rms(prec ) = 0.11508E-02
  weight for this iteration     100.00

 eigenvalues of (default mixing * dielectric matrix)
  average eigenvalue GAMMA=   1.3328
  2.7135  2.0648  2.0648  1.0533  1.0448  1.0448  0.8213  0.8213  0.8494  0.8494

 Free energy of the ion-electron system (eV)
  ---------------------------------------------------
  alpha Z        PSCENC =      1180.79420070
  Ewald energy   TEWEN  =    -27711.27472275
  -Hartree energ DENC   =    -12664.55014685
  -exchange      EXHF   =         0.00000000
  -V(xc)+E(xc)   XCENC  =      1241.40839374
  PAW double counting   =     35529.73851887   -34919.02236896
  entropy T*S    EENTRO =        -0.00187714
  eigenvalues    EBANDS =     -3205.36416239
  atomic energy  EATOM  =     40341.65184589
  Solvation  Ediel_sol  =         0.00000000
  ---------------------------------------------------
  free energy    TOTEN  =      -206.62031888 eV

  energy without entropy =     -206.61844174  energy(sigma->0) =     -206.61938031


--------------------------------------------------------------------------------------------------------




--------------------------------------- Iteration      1(  16)  ---------------------------------------


    POTLOK:  cpu time      0.2168: real time      0.2169
    SETDIJ:  cpu time      0.7164: real time      0.7164
     EDDAV:  cpu time     47.5700: real time     47.5700
       DOS:  cpu time      0.0024: real time      0.0025
    CHARGE:  cpu time      1.4172: real time      1.4172
    MIXING:  cpu time      0.0094: real time      0.0094
    --------------------------------------------
      LOOP:  cpu time     49.9322: real time     49.9322

 eigenvalue-minimisations  :  7440
 total energy-change (2. order) : 0.4884469E-06  (-0.9720998E-06)
 number of electron     384.0000006 magnetization 
 augmentation part       94.9762802 magnetization 

 Broyden mixing:
  rms(total) = 0.42920E-03    rms(broyden)= 0.42866E-03
  rms(prec ) = 0.47881E-03
  weight for this iteration     100.00

 eigenvalues of (default mixing * dielectric matrix)
  average eigenvalue GAMMA=   1.3780
  2.8468  2.6023  1.8417  1.5410  1.0314  1.0314  0.9013  0.8569  0.8569  0.8242
  0.8242

 Free energy of the ion-electron system (eV)
  ---------------------------------------------------
  alpha Z        PSCENC =      1180.79420070
  Ewald energy   TEWEN  =    -27711.27472275
  -Hartree energ DENC   =    -12664.52242015
  -exchange      EXHF   =         0.00000000
  -V(xc)+E(xc)   XCENC  =      1241.40639033
  PAW double counting   =     35529.58922538   -34918.85313239
  entropy T*S    EENTRO =        -0.00187666
  eigenvalues    EBANDS =     -3205.40982875
  atomic energy  EATOM  =     40341.65184589
  Solvation  Ediel_sol  =         0.00000000
  ---------------------------------------------------
  free energy    TOTEN  =      -206.62031839 eV

  energy without entropy =     -206.61844174  energy(sigma->0) =     -206.61938007


--------------------------------------------------------------------------------------------------------




--------------------------------------- Iteration      1(  17)  ---------------------------------------


    POTLOK:  cpu time      0.2163: real time      0.2163
    SETDIJ:  cpu time      0.7087: real time      0.7087
[...]
    180       4.1901      2.00000
    181       4.2294      2.00000
    182       4.2775      2.00000
    183       4.2775      2.00000
    184       4.3588      2.00000
    185       4.4265      2.00000
    186       4.5820      2.00000
    187       4.5820      2.00000
    188       4.5821      2.00000
    189       4.6096      2.00000
    190       4.6637      2.00000
    191       4.6637      2.00000
    192       4.7078      2.00000
    193       6.5355      0.00000
    194       6.5422      0.00000
    195       6.5573      0.00000
    196       6.5573      0.00000
    197       7.1581      0.00000
    198       7.1710      0.00000
    199       7.1985      0.00000
    200       7.1985      0.00000
    201       7.7690      0.00000
    202       7.7690      0.00000
    203       7.8025      0.00000
    204       7.9198      0.00000
    205       7.9326      0.00000
    206       7.9521      0.00000
    207       7.9521      0.00000
    208       7.9663      0.00000
    209       8.0714      0.00000
    210       8.1381      0.00000
    211       8.1425      0.00000
    212       8.1425      0.00000
    213       8.1444      0.00000
    214       8.1483      0.00000
    215       8.1641      0.00000
    216       8.1641      0.00000
    217       8.7005      0.00000
    218       8.7005      0.00000
    219       8.7085      0.00000
    220       8.7144      0.00000
    221       8.8331      0.00000
    222       8.8537      0.00000
    223       8.8537      0.00000
    224       8.9455      0.00000
    225       9.3707      0.00000
    226       9.3969      0.00000
    227       9.3969      0.00000
    228       9.5106      0.00000
    229       9.5214      0.00000
    230       9.5281      0.00000
    231       9.5281      0.00000
    232       9.5399      0.00000


--------------------------------------------------------------------------------------------------------


 soft charge-density along one line, spin component           1
         0         1         2         3         4         5         6         7         8         9
 total charge-density along one line
 
 pseudopotential strength for first ion, spin component:           1
-18.752   0.004   0.002   0.004   0.000   4.588  -0.002  -0.001
  0.004 -18.744   0.003  -0.002  -0.006  -0.002   4.586  -0.002
  0.002   0.003 -18.765   0.003  -0.000  -0.001  -0.002   4.598
  0.004  -0.002   0.003 -18.744   0.006  -0.002   0.001  -0.002
  0.000  -0.006  -0.000   0.006 -18.733  -0.000   0.003   0.000
  4.588  -0.002  -0.001  -0.002  -0.000   5.495   0.001   0.000
 -0.002   4.586  -0.002   0.001   0.003   0.001   5.495   0.001
 -0.001  -0.002   4.598  -0.002   0.000   0.000   0.001   5.494
 -0.002   0.001  -0.002   4.586  -0.003   0.001  -0.000   0.001
 -0.000   0.003   0.000  -0.003   4.578  -0.000  -0.001  -0.000
 -0.000   0.000   0.004   0.000  -0.000   0.001  -0.002   0.006
  0.000  -0.001  -0.005  -0.001  -0.000  -0.001   0.003  -0.007
 -0.000  -0.015   0.000  -0.000   0.000  -0.000   0.003   0.000
 -0.000  -0.000  -0.018  -0.000   0.000  -0.000  -0.000   0.002
 -0.000  -0.000   0.000  -0.015  -0.000  -0.000  -0.000   0.000
 -0.000  -0.026   0.000  -0.000   0.001  -0.000   0.002   0.000
 -0.000  -0.001  -0.028  -0.001   0.000  -0.000  -0.000  -0.001
 -0.000  -0.000   0.000  -0.026  -0.001  -0.000  -0.000   0.000
 total augmentation occupancy for first ion, spin component:           1
  1.998  -0.000  -0.000  -0.000  -0.000  -0.007   0.000  -0.000   0.000   0.000  -0.000  -0.000   0.001  -0.000   0.001  -0.001
 -0.000   1.997  -0.000   0.000   0.000   0.000  -0.008  -0.000  -0.000   0.000   0.000   0.001   0.031   0.001  -0.000  -0.011
 -0.000  -0.000   1.999  -0.000  -0.000  -0.000  -0.000  -0.005  -0.000   0.000   0.002   0.000  -0.000   0.028  -0.000   0.000
 -0.000   0.000  -0.000   1.997  -0.000   0.000  -0.000  -0.000  -0.008  -0.000   0.000   0.001  -0.000   0.001   0.031   0.000
 -0.000   0.000  -0.000  -0.000   1.997   0.000   0.000   0.000  -0.000  -0.010   0.000   0.000  -0.001   0.000   0.001  -0.000
 -0.007   0.000  -0.000   0.000   0.000   0.015  -0.000   0.000  -0.000   0.000   0.000  -0.001   0.004  -0.000   0.004  -0.000
  0.000  -0.008  -0.000  -0.000   0.000  -0.000   0.034   0.000  -0.001  -0.002  -0.001   0.001  -0.074  -0.004  -0.001   0.009
 -0.000  -0.000  -0.005  -0.000   0.000   0.000   0.000   0.013   0.000  -0.000   0.012  -0.005   0.001   0.011   0.001  -0.000
  0.000  -0.000  -0.000  -0.008  -0.000  -0.000  -0.001   0.000   0.034   0.002  -0.001   0.001  -0.001  -0.004  -0.074  -0.000
  0.000   0.000   0.000  -0.000  -0.010   0.000  -0.002  -0.000   0.002   0.045   0.000  -0.000   0.010   0.000  -0.010  -0.001
 -0.000   0.000   0.002   0.000   0.000   0.000  -0.001   0.012  -0.001   0.000   2.043  -0.032   0.003   0.152   0.003   0.000
 -0.000   0.001   0.000   0.001   0.000  -0.001   0.001  -0.005   0.001  -0.000  -0.032   0.026  -0.003  -0.068  -0.003   0.000
  0.001   0.031  -0.000  -0.000  -0.001   0.004  -0.074   0.001  -0.001   0.010   0.003  -0.003   0.820   0.019  -0.007  -0.066
 -0.000   0.001   0.028   0.001   0.000  -0.000  -0.004   0.011  -0.004   0.000   0.152  -0.068   0.019   0.869   0.019  -0.002
  0.001  -0.000  -0.000   0.031   0.001   0.004  -0.001   0.001  -0.074  -0.010   0.003  -0.003  -0.007   0.019   0.820   0.001
 -0.001  -0.011   0.000   0.000  -0.000  -0.000   0.009  -0.000  -0.000  -0.001   0.000   0.000  -0.066  -0.002   0.001   0.007
  0.000  -0.000  -0.018  -0.000  -0.000  -0.000   0.000  -0.000   0.000   0.000  -0.011   0.007  -0.002  -0.063  -0.002   0.000
 -0.001   0.000   0.000  -0.011   0.000  -0.000  -0.000  -0.000   0.009   0.001   0.000   0.000   0.001  -0.002  -0.066  -0.000


------------------------ aborting loop because EDIFF is reached ----------------------------------------


    CHARGE:  cpu time      1.4160: real time      1.4161
    FORLOC:  cpu time      0.0181: real time      0.0181
    FORNL :  cpu time      6.7185: real time      6.7187
    STRESS:  cpu time     22.9051: real time     22.9047
    FORCOR:  cpu time      0.2198: real time      0.2200
    FORHAR:  cpu time      0.0710: real time      0.0710
    MIXING:  cpu time      0.0063: real time      0.0063
    OFIELD:  cpu time      0.0001: real time      0.0001

  FORCE on cell =-STRESS in cart. coord.  units (eV):
  Direction    XX          YY          ZZ          XY          YZ          ZX
  --------------------------------------------------------------------------------------
  Alpha Z  1180.79420  1180.79420  1180.79420
  Ewald   -6852.83433 -6852.83433-14005.71110    -0.00000     0.00000     0.00000
  Hartree  6254.34764  6254.34764   155.84844    -0.00000    -0.00000    -0.00000
  E(xc)   -1817.08773 -1817.08773 -1819.59967    -0.00000     0.00000    -0.00000
  Local   -7442.28982 -7442.28982  5808.22442    -0.00000    -0.00000     0.00000
  n-local  1560.86023  1571.03581  1564.61008     0.15585    -0.05585     0.06561
  augment  2176.40348  2176.40348  2161.91663    -0.00000     0.00000     0.00000
  Kinetic  4890.46691  4900.76009  4925.28454    -2.93011     0.39020    -0.40103
  Fock        0.00000     0.00000     0.00000     0.00000     0.00000     0.00000
  -------------------------------------------------------------------------------------
  Total     -39.10504   -39.10504   -28.63247     0.00000     0.00000     0.00000
  in kB     -73.23673   -73.23673   -53.62349     0.00000     0.00000     0.00000
  external pressure =      -66.70 kB  Pullay stress =        0.00 kB


 VOLUME and BASIS-vectors are now :
 -----------------------------------------------------------------------------
  energy-cutoff  :      520.00
  volume of cell :      855.49
      direct lattice vectors                 reciprocal lattice vectors
     8.153765411  0.000000000  0.000000000     0.122642724  0.000000000  0.000000000
     0.000000000  8.153765411  0.000000000     0.000000000  0.122642724  0.000000000
     0.000000000  0.000000000 12.867609879     0.000000000  0.000000000  0.077714510

  length of vectors
     8.153765411  8.153765411 12.867609879     0.122642724  0.122642724  0.077714510


 FORCES acting on ions
    electron-ion (+dipol)            ewald-force                    non-local-force                 convergence-correction
 -----------------------------------------------------------------------------------------------
   -.804E+01 -.804E+01 -.442E+03   0.834E+01 0.834E+01 0.452E+03   -.299E+00 -.299E+00 -.985E+01   0.750E-06 0.750E-06 0.258E-05
   0.804E+01 -.804E+01 -.442E+03   -.834E+01 0.834E+01 0.452E+03   0.299E+00 -.299E+00 -.985E+01   -.750E-06 0.750E-06 0.258E-05
   -.804E+01 0.804E+01 -.442E+03   0.834E+01 -.834E+01 0.452E+03   -.299E+00 0.299E+00 -.985E+01   0.750E-06 -.750E-06 0.258E-05
   0.804E+01 0.804E+01 -.442E+03   -.834E+01 -.834E+01 0.452E+03   0.299E+00 0.299E+00 -.985E+01   -.750E-06 -.750E-06 0.258E-05
   0.214E-13 -.245E-12 0.417E+03   0.128E-12 0.711E-13 -.422E+03   -.797E-18 0.238E-18 0.460E+01   -.220E-11 -.608E-12 0.401E-05
   0.659E-12 0.244E-12 0.507E+03   -.284E-13 -.604E-13 -.517E+03   0.579E-18 0.733E-19 0.104E+02   0.212E-11 0.293E-11 0.228E-05
   -.356E-13 -.543E-12 0.507E+03   -.995E-13 0.284E-13 -.517E+03   -.105E-17 -.562E-18 0.104E+02   -.388E-11 -.982E-12 0.228E-05
   0.668E-12 -.891E-12 0.551E+03   0.256E-12 0.604E-13 -.564E+03   -.199E-19 0.998E-19 0.131E+02   0.388E-11 -.298E-11 0.132E-05
   -.119E-13 0.275E-12 -.417E+03   -.711E-13 0.000E+00 0.422E+03   0.899E-18 -.898E-19 -.460E+01   0.185E-11 -.173E-11 -.401E-05
   0.666E-12 -.214E-12 -.507E+03   0.128E-12 -.462E-13 0.517E+03   -.119E-17 -.917E-19 -.104E+02   -.178E-11 0.892E-12 -.228E-05
   -.410E-13 0.229E-11 -.507E+03   -.853E-13 0.284E-13 0.517E+03   0.554E-18 -.542E-18 -.104E+02   -.213E-12 0.294E-11 -.228E-05
   0.612E-12 -.281E-11 -.551E+03   0.142E-13 -.462E-13 0.564E+03   -.883E-19 -.901E-19 -.131E+02   0.620E-12 0.139E-11 -.132E-05
   -.804E+01 -.804E+01 0.442E+03   0.834E+01 0.834E+01 -.452E+03   -.299E+00 -.299E+00 0.985E+01   0.750E-06 0.750E-06 -.258E-05
   0.804E+01 -.804E+01 0.442E+03   -.834E+01 0.834E+01 -.452E+03   0.299E+00 -.299E+00 0.985E+01   -.750E-06 0.750E-06 -.258E-05
   -.804E+01 0.804E+01 0.442E+03   0.834E+01 -.834E+01 -.452E+03   -.299E+00 0.299E+00 0.985E+01   0.750E-06 -.750E-06 -.258E-05
   0.804E+01 0.804E+01 0.442E+03   -.834E+01 -.834E+01 -.452E+03   0.299E+00 0.299E+00 0.985E+01   -.750E-06 -.750E-06 -.258E-05
   0.673E-13 0.208E-13 -.519E-11   0.000E+00 0.426E-13 0.355E-13   0.390E-27 -.517E-28 0.190E-26   0.167E-11 0.362E-12 -.314E-11
   0.251E-13 0.643E-13 -.827E-13   0.853E-13 0.142E-13 0.782E-13   -.609E-28 -.808E-28 0.262E-26   -.202E-12 -.104E-11 -.327E-11
   0.667E-13 0.160E-11 -.319E-12   -.284E-13 0.142E-13 0.604E-13   -.366E-27 0.418E-27 0.306E-27   0.248E-12 0.661E-13 -.290E-11
   -.326E+02 -.326E+02 -.151E-06   0.328E+02 0.328E+02 -.113E-13   -.158E+00 -.158E+00 0.150E-20   0.115E-05 0.115E-05 0.509E-11
   0.326E+02 -.326E+02 -.459E-11   -.328E+02 0.328E+02 -.645E-13   0.158E+00 -.158E+00 0.899E-20   -.115E-05 0.115E-05 0.749E-11
   -.326E+02 0.326E+02 -.913E-12   0.328E+02 -.328E+02 -.539E-13   -.158E+00 0.158E+00 -.640E-19   0.115E-05 -.115E-05 0.479E-11
   0.326E+02 0.326E+02 0.151E-06   -.328E+02 -.328E+02 -.539E-13   0.158E+00 0.158E+00 0.541E-19   -.115E-05 -.115E-05 0.750E-11
   0.566E-12 0.150E+02 0.137E+02   0.284E-13 -.171E+02 -.150E+02   -.513E-19 0.214E+01 0.133E+01   -.201E-11 0.120E-05 0.249E-05
   0.322E-12 0.578E+01 0.111E+02   -.142E-13 -.717E+01 -.976E+01   0.690E-19 0.140E+01 -.134E+01   0.180E-11 -.250E-06 0.362E-05
   0.679E-13 -.150E+02 0.137E+02   -.142E-13 0.171E+02 -.150E+02   -.200E-18 -.214E+01 0.133E+01   -.273E-11 -.120E-05 0.249E-05
   0.325E-12 -.578E+01 0.111E+02   0.568E-13 0.717E+01 -.976E+01   -.101E-18 -.140E+01 -.134E+01   0.273E-11 0.250E-06 0.362E-05
   0.150E+02 0.124E-12 0.137E+02   -.171E+02 0.355E-14 -.150E+02   0.214E+01 -.219E-18 0.133E+01   0.120E-05 0.772E-12 0.249E-05
   -.150E+02 0.118E-12 0.137E+02   0.171E+02 0.000E+00 -.150E+02   -.214E+01 0.160E-18 0.133E+01   -.120E-05 0.132E-11 0.249E-05
   0.578E+01 -.247E-12 0.111E+02   -.717E+01 0.000E+00 -.976E+01   0.140E+01 -.661E-19 -.134E+01   -.250E-06 -.141E-11 0.362E-05
   -.578E+01 0.238E-11 0.111E+02   0.717E+01 0.000E+00 -.976E+01   -.140E+01 -.528E-18 -.134E+01   0.250E-06 0.230E-11 0.362E-05
   0.150E+02 0.147E-13 -.137E+02   -.171E+02 -.142E-13 0.150E+02   0.214E+01 0.155E-18 -.133E+01   0.120E-05 0.294E-12 -.249E-05
   -.150E+02 -.280E-13 -.137E+02   0.171E+02 -.568E-13 0.150E+02   -.214E+01 -.236E-18 -.133E+01   -.120E-05 0.373E-12 -.249E-05
   0.578E+01 0.101E-12 -.111E+02   -.717E+01 -.249E-13 0.976E+01   0.140E+01 -.533E-18 0.134E+01   -.250E-06 0.232E-12 -.362E-05
   -.578E+01 0.306E-11 -.111E+02   0.717E+01 -.426E-13 0.976E+01   -.140E+01 -.433E-19 0.134E+01   0.250E-06 0.133E-12 -.362E-05
   0.749E-13 0.150E+02 -.137E+02   0.426E-13 -.171E+02 0.150E+02   -.191E-18 0.214E+01 -.133E+01   0.650E-13 0.120E-05 -.249E-05
   0.318E-12 0.578E+01 -.111E+02   0.426E-13 -.717E+01 0.976E+01   -.827E-19 0.140E+01 0.134E+01   0.125E-12 -.250E-06 -.362E-05
   0.681E-13 -.150E+02 -.137E+02   -.426E-13 0.171E+02 0.150E+02   0.462E-19 -.214E+01 -.133E+01   -.478E-13 -.120E-05 -.249E-05
   0.322E-12 -.578E+01 -.111E+02   0.853E-13 0.717E+01 0.976E+01   -.398E-19 -.140E+01 0.134E+01   0.178E-12 0.250E-06 -.362E-05
   0.286E-13 0.273E-13 -.130E-12   -.284E-13 0.000E+00 0.103E-12   0.137E-26 -.131E-26 -.488E-28   -.167E-11 0.114E-11 -.475E-11
 -----------------------------------------------------------------------------------------------
   0.182E-10 0.507E-10 0.276E-09   -.142E-12 0.817E-13 -.579E-12   0.444E-15 -.444E-15 0.622E-14   -.155E-11 -.776E-11 -.421E-10
 
 
 POSITION                                       TOTAL-FORCE (eV/Angst)
 -----------------------------------------------------------------------------------
      2.01295      2.01295     10.92773        -0.000002     -0.000002      0.000001
      6.14081      2.01295     10.92773         0.000002     -0.000002      0.000001
      2.01295      6.14081     10.92773        -0.000002      0.000002      0.000001
      6.14081      6.14081     10.92773         0.000002      0.000002      0.000001
      0.00000      0.00000      8.28877         0.000000     -0.000000     -0.000008
      4.07688      0.00000      8.43838         0.000000      0.000000      0.000006
      0.00000      4.07688      8.43838         0.000000     -0.000000      0.000006
      4.07688      4.07688      8.51504        -0.000000     -0.000000      0.000008
      0.00000      0.00000      4.57884        -0.000000     -0.000000      0.000008
      4.07688      0.00000      4.42923         0.000000      0.000000     -0.000006
      0.00000      4.07688      4.42923        -0.000000     -0.000000     -0.000006
      4.07688      4.07688      4.35257         0.000000     -0.000000     -0.000008
      2.01295      2.01295      1.93988        -0.000002     -0.000002     -0.000001
      6.14081      2.01295      1.93988         0.000002     -0.000002     -0.000001
      2.01295      6.14081      1.93988        -0.000002      0.000002     -0.000001
      6.14081      6.14081      1.93988         0.000002      0.000002     -0.000001
      4.07688      0.00000     12.86761         0.000000      0.000000     -0.000000
      0.00000      4.07688     12.86761         0.000000      0.000000     -0.000000
      4.07688      4.07688     12.86761        -0.000000     -0.000000     -0.000000
      1.91675      1.91675      6.43380        -0.000004     -0.000004      0.000000
      6.23701      1.91675      6.43380         0.000004     -0.000004      0.000000
      1.91675      6.23701      6.43380        -0.000004      0.000004     -0.000000
      6.23701      6.23701      6.43380         0.000004      0.000004     -0.000000
      8.15377      2.07083      9.68745         0.000000     -0.000005     -0.000005
      4.07688      2.05923      9.66537        -0.000000     -0.000000     -0.000006
      0.00000      6.08294      9.68745         0.000000      0.000005     -0.000005
      4.07688      6.09453      9.66537         0.000000      0.000000     -0.000006
      2.07083      0.00000      9.68745        -0.000005      0.000000     -0.000005
      6.08294      0.00000      9.68745         0.000005      0.000000     -0.000005
      2.05923      4.07688      9.66537        -0.000000      0.000000     -0.000006
      6.09453      4.07688      9.66537         0.000000      0.000000     -0.000006
      2.07083      0.00000      3.18016        -0.000005     -0.000000      0.000005
      6.08294      0.00000      3.18016         0.000005      0.000000      0.000005
      2.05923      4.07688      3.20224        -0.000000      0.000000      0.000006
      6.09453      4.07688      3.20224         0.000000      0.000000      0.000006
      0.00000      2.07083      3.18016        -0.000000     -0.000005      0.000005
      4.07688      2.05923      3.20224        -0.000000     -0.000000      0.000006
      0.00000      6.08294      3.18016         0.000000      0.000005      0.000005
      4.07688      6.09453      3.20224         0.000000      0.000000      0.000006
      0.00000      0.00000     12.86761        -0.000000      0.000000      0.000000
 -----------------------------------------------------------------------------------
    total drift:                                0.000000      0.000000      0.000000


--------------------------------------------------------------------------------------------------------



  FREE ENERGIE OF THE ION-ELECTRON SYSTEM (eV)
  ---------------------------------------------------
  free  energy   TOTEN  =      -206.62031759 eV

  energy  without entropy=     -206.61844078  energy(sigma->0) =     -206.61937918
 
 d Force = 0.2978413E-10[ 0.239E-10, 0.357E-10]  d Energy =-0.9295036E-09 0.959E-09
 d Force = 0.2948369E-04[ 0.295E-04, 0.295E-04]  d Ewald  = 0.2948332E-04 0.378E-09


--------------------------------------------------------------------------------------------------------


    POTLOK:  cpu time      0.9169: real time      0.9170


--------------------------------------------------------------------------------------------------------


 Conjugate gradient step on ions:
 trial-energy change:    0.000000  1 .order   -0.000000   -0.000000   -0.000000
  (g-gl).g = 0.250E-10      g.g   = 0.116E-09  gl.gl    = 0.227E-09
 g(Force)  = 0.116E-09   g(Stress)= 0.000E+00 ortho     = 0.223E-10
 gamma     =   0.11007
 trial     =   0.30041
 opt step  =   0.91190  (harmonic =   0.91190) maximal distance =0.00000064
 next E    =  -206.620318   (d E  =  -0.00000)


--------------------------------------------------------------------------------------------------------


  
 reached required accuracy - stopping structural energy minimisation
     LOOP+:  cpu time    172.8777: real time    172.9137
    4ORBIT:  cpu time      0.0000: real time      0.0000

 total amount of memory used by VASP MPI-rank0   103452. kBytes
=======================================================================

   base      :      30000. kBytes
   nonl-proj :      19423. kBytes
   fftplans  :      15444. kBytes
   grid      :       9109. kBytes
   one-center:         77. kBytes
   wavefun   :      29399. kBytes
 
  
  
 General timing and accounting informations for this job:
 ========================================================
  
                  Total CPU time used (sec):     4368.367
                            User time (sec):     4359.627
                          System time (sec):        8.740
                         Elapsed time (sec):     4370.041
  
                   Maximum memory used (kb):      216492.
                   Average memory used (kb):          N/A
  
                          Minor page faults:        40304
                          Major page faults:            6
                 Voluntary context switches:          398
