<?xml version="1.0" encoding="ISO-8859-1"?>
<modeling>
 <generator>
  <i name="program" type="string">vasp </i>
  <i name="version" type="string">6.4.3  </i>
  <i name="subversion" type="string">19Mar24 (build Apr 09 2025 20:43:19) complex                          parallel </i>
  <i name="platform" type="string">LinuxIFC </i>
  <i name="date" type="string">2025 04 17 </i>
  <i name="time" type="string">06:49:48 </i>
 </generator>
 <incar>
  <i type="string" name="PREC">Accurate</i>
  <i type="int" name="IALGO">    38</i>
  <i type="logical" name="ADDGRID"> T  </i>
  <i type="int" name="NELMIN">     5</i>
  <i type="int" name="IBRION">     2</i>
  <i name="EDIFF">      0.00000001</i>
  <i name="EDIFFG">     -0.00001000</i>
  <i type="int" name="NSW">   100</i>
  <i type="int" name="ISIF">     2</i>
  <i name="ENCUT">    520.00000000</i>
  <i type="logical" name="LREAL"> F  </i>
  <i type="int" name="ISMEAR">     0</i>
  <i name="SIGMA">      0.05000000</i>
  <i type="logical" name="LWAVE"> F  </i>
  <i type="logical" name="LCHARG"> F  </i>
 </incar>
 <primitive_cell>
  <structure name="primitive_cell" >
   <crystal>
    <varray name="basis" >
     <v>       8.15376541       0.00000000       0.00000000 </v>
     <v>       0.00000000       8.15376541       0.00000000 </v>
     <v>       0.00000000       0.00000000      12.86760988 </v>
    </varray>
    <i name="volume">    855.48876452 </i>
    <varray name="rec_basis" >
     <v>       0.12264272       0.00000000       0.00000000 </v>
     <v>       0.00000000       0.12264272       0.00000000 </v>
     <v>       0.00000000       0.00000000       0.07771451 </v>
    </varray>
   </crystal>
   <varray name="positions" >
    <v>       0.24687416       0.24687416       0.84924287 </v>
    <v>       0.75312584       0.24687416       0.84924287 </v>
    <v>       0.24687416       0.75312584       0.84924287 </v>
    <v>       0.75312584       0.75312584       0.84924287 </v>
    <v>       0.00000000       0.00000000       0.64415816 </v>
    <v>       0.50000000       0.00000000       0.65578428 </v>
    <v>       0.00000000       0.50000000       0.65578428 </v>
    <v>       0.50000000       0.50000000       0.66174195 </v>
    <v>       0.00000000       0.00000000       0.35584184 </v>
    <v>       0.50000000       0.00000000       0.34421572 </v>
    <v>       0.00000000       0.50000000       0.34421572 </v>
    <v>       0.50000000       0.50000000       0.33825805 </v>
    <v>       0.24687416       0.24687416       0.15075713 </v>
    <v>       0.75312584       0.24687416       0.15075713 </v>
    <v>       0.24687416       0.75312584       0.15075713 </v>
    <v>       0.75312584       0.75312584       0.15075713 </v>
    <v>       0.50000000       0.00000000       0.00000000 </v>
    <v>       0.00000000       0.50000000       0.00000000 </v>
    <v>       0.50000000       0.50000000       0.00000000 </v>
    <v>       0.23507661       0.23507661       0.50000000 </v>
    <v>       0.76492339       0.23507661       0.50000000 </v>
    <v>       0.23507661       0.76492339       0.50000000 </v>
    <v>       0.76492339       0.76492339       0.50000000 </v>
    <v>       0.00000000       0.25397127       0.75285482 </v>
    <v>       0.50000000       0.25254954       0.75113934 </v>
    <v>       0.00000000       0.74602873       0.75285482 </v>
    <v>       0.50000000       0.74745046       0.75113934 </v>
    <v>       0.25397127       0.00000000       0.75285482 </v>
    <v>       0.74602873       0.00000000       0.75285482 </v>
    <v>       0.25254954       0.50000000       0.75113934 </v>
    <v>       0.74745046       0.50000000       0.75113934 </v>
    <v>       0.25397127       0.00000000       0.24714518 </v>
    <v>       0.74602873       0.00000000       0.24714518 </v>
    <v>       0.25254954       0.50000000       0.24886066 </v>
    <v>       0.74745046       0.50000000       0.24886066 </v>
    <v>       0.00000000       0.25397127       0.24714518 </v>
    <v>       0.50000000       0.25254954       0.24886066 </v>
    <v>       0.00000000       0.74602873       0.24714518 </v>
    <v>       0.50000000       0.74745046       0.24886066 </v>
    <v>       0.00000000       0.00000000       0.00000000 </v>
   </varray>
  </structure>
  <varray name="primitive_index" >
   <v type="int" >        1 </v>
   <v type="int" >        2 </v>
   <v type="int" >        3 </v>
   <v type="int" >        4 </v>
   <v type="int" >        5 </v>
   <v type="int" >        6 </v>
   <v type="int" >        7 </v>
   <v type="int" >        8 </v>
   <v type="int" >        9 </v>
   <v type="int" >       10 </v>
   <v type="int" >       11 </v>
   <v type="int" >       12 </v>
   <v type="int" >       13 </v>
   <v type="int" >       14 </v>
   <v type="int" >       15 </v>
   <v type="int" >       16 </v>
   <v type="int" >       17 </v>
   <v type="int" >       18 </v>
   <v type="int" >       19 </v>
   <v type="int" >       20 </v>
   <v type="int" >       21 </v>
   <v type="int" >       22 </v>
   <v type="int" >       23 </v>
   <v type="int" >       24 </v>
   <v type="int" >       25 </v>
   <v type="int" >       26 </v>
   <v type="int" >       27 </v>
   <v type="int" >       28 </v>
   <v type="int" >       29 </v>
   <v type="int" >       30 </v>
   <v type="int" >       31 </v>
   <v type="int" >       32 </v>
   <v type="int" >       33 </v>
   <v type="int" >       34 </v>
   <v type="int" >       35 </v>
   <v type="int" >       36 </v>
   <v type="int" >       37 </v>
   <v type="int" >       38 </v>
   <v type="int" >       39 </v>
   <v type="int" >       40 </v>
  </varray>
 </primitive_cell>
 <kpoints>
  <generation param="Gamma">
   <v type="int" name="divisions">       4        4        3 </v>
   <v name="usershift">      0.00000000       0.00000000       0.00000000 </v>
   <v name="genvec1">      0.25000000       0.00000000       0.00000000 </v>
   <v name="genvec2">      0.00000000       0.25000000       0.00000000 </v>
   <v name="genvec3">      0.00000000       0.00000000       0.33333333 </v>
   <v name="shift">      0.00000000       0.00000000       0.00000000 </v>
  </generation>
  <varray name="kpointlist" >
   <v>       0.00000000       0.00000000       0.00000000 </v>
   <v>       0.25000000       0.00000000       0.00000000 </v>
   <v>       0.50000000       0.00000000       0.00000000 </v>
   <v>       0.25000000       0.25000000       0.00000000 </v>
   <v>       0.50000000       0.25000000       0.00000000 </v>
   <v>       0.50000000       0.50000000       0.00000000 </v>
   <v>       0.00000000       0.00000000       0.33333333 </v>
   <v>       0.25000000       0.00000000       0.33333333 </v>
   <v>       0.50000000       0.00000000       0.33333333 </v>
   <v>       0.25000000       0.25000000       0.33333333 </v>
   <v>       0.50000000       0.25000000       0.33333333 </v>
   <v>       0.50000000       0.50000000       0.33333333 </v>
  </varray>
  <varray name="weights" >
   <v>       0.02083333 </v>
   <v>       0.08333333 </v>
   <v>       0.04166667 </v>
   <v>       0.08333333 </v>
   <v>       0.08333333 </v>
   <v>       0.02083333 </v>
   <v>       0.04166667 </v>
   <v>       0.16666667 </v>
   <v>       0.08333333 </v>
   <v>       0.16666667 </v>
   <v>       0.16666667 </v>
   <v>       0.04166667 </v>
  </varray>
 </kpoints>
 <parameters>
  <separator name="general" >
   <i type="string" name="SYSTEM">unknown system</i>
   <i type="logical" name="LCOMPAT"> F  </i>
  </separator>
  <separator name="electronic" >
   <i type="string" name="PREC">accura</i>
   <i name="ENMAX">    520.00000000</i>
   <i name="ENAUG">    605.39200000</i>
   <i name="EDIFF">      0.00000001</i>
   <i type="int" name="IALGO">    38</i>
   <i type="int" name="IWAVPR">    11</i>
   <i type="int" name="NBANDS">   232</i>
   <i type="int" name="NBANDSLOW">    -1</i>
   <i type="int" name="NBANDSHIGH">    -1</i>
   <i name="NELECT">    384.00000000</i>
   <i type="int" name="TURBO">     0</i>
   <i type="int" name="IRESTART">     0</i>
   <i type="int" name="NREBOOT">     0</i>
   <i type="int" name="NMIN">     0</i>
   <i name="EREF">      0.00000000</i>
   <separator name="electronic smearing" >
    <i type="int" name="ISMEAR">     0</i>
    <i name="SIGMA">      0.05000000</i>
    <i name="KSPACING">      0.50000000</i>
    <i type="logical" name="KGAMMA"> T  </i>
    <i type="logical" name="KBLOWUP"> T  </i>
   </separator>
   <separator name="electronic projectors" >
    <i type="logical" name="LREAL"> F  </i>
    <v name="ROPT">      0.00000000      0.00000000      0.00000000      0.00000000</v>
    <i type="int" name="LMAXPAW">  -100</i>
    <i type="int" name="LMAXMIX">     2</i>
    <i type="logical" name="NLSPLINE"> F  </i>
   </separator>
   <separator name="electronic startup" >
    <i type="int" name="ISTART">     0</i>
    <i type="int" name="ICHARG">     2</i>
    <i type="int" name="INIWAV">     1</i>
   </separator>
   <separator name="electronic spin" >
    <i type="int" name="ISPIN">     1</i>
    <i type="logical" name="LNONCOLLINEAR"> F  </i>
    <v name="MAGMOM">      1.00000000      1.00000000      1.00000000      1.00000000      1.00000000      1.00000000      1.00000000      1.00000000      1.00000000      1.00000000      1.00000000      1.00000000      1.00000000      1.00000000      1.00000000      1.00000000      1.00000000      1.00000000      1.00000000      1.00000000
      1.00000000      1.00000000      1.00000000      1.00000000      1.00000000      1.00000000      1.00000000      1.00000000      1.00000000      1.00000000      1.00000000      1.00000000      1.00000000      1.00000000      1.00000000      1.00000000      1.00000000      1.00000000      1.00000000      1.00000000
</v>
    <i name="NUPDOWN">     -1.00000000</i>
    <i type="logical" name="LSORBIT"> F  </i>
    <v name="SAXIS">      0.00000000      0.00000000      1.00000000</v>
    <i type="logical" name="LSPIRAL"> F  </i>
    <v name="QSPIRAL">      0.00000000      0.00000000      0.00000000</v>
    <i type="logical" name="LZEROZ"> F  </i>
   </separator>
   <separator name="electronic exchange-correlation" >
    <i type="logical" name="LASPH"> F  </i>
   </separator>
   <separator name="electronic convergence" >
    <i type="int" name="NELM">    60</i>
    <i type="int" name="NELMDL">    -5</i>
    <i type="int" name="NELMIN">     5</i>
    <i name="ENINI">    520.00000000</i>
    <separator name="electronic convergence detail" >
     <i type="logical" name="LDIAG"> T  </i>
     <i type="logical" name="LSUBROT"> F  </i>
     <i name="WEIMIN">      0.00100000</i>
     <i name="EBREAK">      0.00000000</i>
     <i name="DEPER">      0.30000000</i>
     <i type="int" name="NRMM">     4</i>
     <i name="TIME">      0.40000000</i>
    </separator>
   </separator>
   <separator name="electronic mixer" >
    <i name="AMIX">      0.40000000</i>
    <i name="BMIX">      1.00000000</i>
    <i name="AMIN">      0.10000000</i>
    <i name="AMIX_MAG">      1.60000000</i>
    <i name="BMIX_MAG">      1.00000000</i>
    <separator name="electronic mixer details" >
     <i type="int" name="IMIX">     4</i>
     <i type="logical" name="MIXFIRST"> F  </i>
     <i type="int" name="MAXMIX">   -45</i>
     <i name="WC">    100.00000000</i>
     <i type="int" name="INIMIX">     1</i>
     <i type="int" name="MIXPRE">     1</i>
     <i type="int" name="MREMOVE">     5</i>
    </separator>
   </separator>
   <separator name="electronic dipolcorrection" >
    <i type="logical" name="LDIPOL"> F  </i>
    <i type="logical" name="LMONO"> F  </i>
    <i type="int" name="IDIPOL">     0</i>
    <i name="EPSILON">      1.00000000</i>
    <v name="DIPOL">   -100.00000000   -100.00000000   -100.00000000</v>
    <i name="EFIELD">      0.00000000</i>
    <i type="logical" name="LVACPOTAV"> F  </i>
   </separator>
  </separator>
  <separator name="grids" >
   <i type="int" name="NGX">    64</i>
   <i type="int" name="NGY">    64</i>
   <i type="int" name="NGZ">    96</i>
   <i type="int" name="NGXF">   128</i>
   <i type="int" name="NGYF">   128</i>
   <i type="int" name="NGZF">   192</i>
   <i type="logical" name="ADDGRID"> T  </i>
  </separator>
  <separator name="ionic" >
   <i type="int" name="NSW">   100</i>
   <i type="int" name="IBRION">     2</i>
   <i type="int" name="MDALGO">     0</i>
   <i type="int" name="ISIF">     2</i>
   <i name="PSTRESS">      0.00000000</i>
   <i name="EDIFFG">     -0.00001000</i>
   <i type="int" name="NFREE">     1</i>
   <i name="POTIM">      0.50000000</i>
   <i name="SMASS">     -3.00000000</i>
   <i name="SCALEE">      1.00000000</i>
  </separator>
  <separator name="ionic md" >
   <i name="TEBEG">      0.00010000</i>
   <i name="TEEND">      0.00010000</i>
   <i type="int" name="NBLOCK">     1</i>
   <i type="int" name="KBLOCK">   100</i>
   <i type="int" name="NPACO">   256</i>
   <i name="APACO">     10.00000000</i>
  </separator>
  <separator name="symmetry" >
   <i type="int" name="ISYM">     2</i>
   <i name="SYMPREC">      0.00001000</i>
  </separator>
  <separator name="dos" >
   <i type="int" name="LORBIT">     0</i>
   <v name="RWIGS">     -1.00000000     -1.00000000     -1.00000000     -1.00000000</v>
   <i type="int" name="NEDOS">   301</i>
   <i name="EMIN">     10.00000000</i>
   <i name="EMAX">    -10.00000000</i>
   <i name="EFERMI">      0.00000000</i>
  </separator>
  <separator name="writing" >
   <i type="int" name="NWRITE">     2</i>
   <i type="logical" name="LWAVE"> F  </i>
   <i type="logical" name="LDOWNSAMPLE"> F  </i>
   <i type="logical" name="LCHARG"> F  </i>
   <i type="logical" name="LPARD"> F  </i>
   <i type="logical" name="LVTOT"> F  </i>
   <i type="logical" name="LVHAR"> F  </i>
   <i type="logical" name="LELF"> F  </i>
   <i type="logical" name="LOPTICS"> F  </i>
   <v name="STM">      0.00000000      0.00000000      0.00000000      0.00000000      0.00000000      0.00000000      0.00000000</v>
  </separator>
  <separator name="performance" >
   <i type="int" name="NPAR">     4</i>
   <i type="int" name="NSIM">     4</i>
   <i type="int" name="NBLK">    -1</i>
   <i type="logical" name="LPLANE"> T  </i>
   <i type="logical" name="LSCALAPACK"> T  </i>
   <i type="logical" name="LSCAAWARE"> F  </i>
   <i type="logical" name="LSCALU"> F  </i>
   <i type="logical" name="LASYNC"> F  </i>
   <i type="logical" name="LORBITALREAL"> F  </i>
  </separator>
  <separator name="miscellaneous" >
   <i type="int" name="IDIOT">     3</i>
   <i type="int" name="PHON_NSTRUCT">    -1</i>
   <i type="logical" name="LMUSIC"> F  </i>
   <v name="POMASS">    208.98000000     78.96000000     16.00000000     32.06600000</v>
   <v name="DARWINR">      0.00000000      0.00000000      0.00000000      0.00000000</v>
   <v name="DARWINV">      1.00000000      1.00000000      1.00000000      1.00000000</v>
   <i type="logical" name="LCORR"> T  </i>
  </separator>
  <i type="logical" name="GGA_COMPAT"> T  </i>
  <i type="logical" name="LBERRY"> F  </i>
  <i type="int" name="ICORELEVEL">     0</i>
  <i type="logical" name="LDAU"> F  </i>
  <i type="int" name="I_CONSTRAINED_M">     0</i>
  <separator name="electronic exchange-correlation" >
   <i type="string" name="GGA    ">PE</i>
   <i type="string" name="XC_C">1</i>
   <i type="int" name="VOSKOWN">     0</i>
   <i type="logical" name="LHFCALC"> F  </i>
   <i type="string" name="PRECFOCK"></i>
   <i type="logical" name="LSYMGRAD"> F  </i>
   <i type="logical" name="LHFONE"> F  </i>
   <i type="logical" name="LRHFCALC"> F  </i>
   <i type="logical" name="LTHOMAS"> F  </i>
   <i type="logical" name="LMODELHF"> F  </i>
   <i type="logical" name="LFOCKACE"> F  </i>
   <i name="ENCUT4O">     -1.00000000</i>
   <i type="int" name="EXXOEP">     0</i>
   <i type="int" name="FOURORBIT">     0</i>
   <i name="AEXX">      0.00000000</i>
   <i name="HFALPHA">      0.00000000</i>
   <i name="MCALPHA">      0.00000000</i>
   <i name="ALDAX">      1.00000000</i>
   <i name="AGGAX">      1.00000000</i>
   <i name="AMGGAX">      1.00000000</i>
   <i name="ALDAC">      1.00000000</i>
   <i name="AGGAC">      1.00000000</i>
   <i name="AMGGAC">      1.00000000</i>
   <i type="int" name="NKREDX">     1</i>
   <i type="int" name="NKREDY">     1</i>
   <i type="int" name="NKREDZ">     1</i>
   <i type="logical" name="SHIFTRED"> F  </i>
   <i type="logical" name="ODDONLY"> F  </i>
   <i type="logical" name="EVENONLY"> F  </i>
   <i type="int" name="LMAXFOCK">     0</i>
   <i type="int" name="NMAXFOCKAE">     0</i>
   <i type="logical" name="LFOCKAEDFT"> F  </i>
   <i name="HFSCREEN">      0.00000000</i>
   <i name="HFSCREENC">      0.00000000</i>
   <i type="int" name="NBANDSGWLOW">     0</i>
  </separator>
  <separator name="vdW DFT" >
   <i type="logical" name="LUSE_VDW"> F  </i>
   <i type="int" name="IVDW_NL">    -1</i>
   <i type="logical" name="LSPIN_VDW"> F  </i>
   <i name="ZAB_VDW">     -0.84910000</i>
   <i name="GAMMA_VDW">      1.39626340</i>
   <i name="ALPHA_VDW">      0.00000000</i>
   <i name="PARAM1">      0.12340000</i>
   <i name="PARAM2">      1.00000000</i>
   <i name="BPARAM">      6.30000000</i>
   <i name="CPARAM">      0.00930000</i>
  </separator>
  <separator name="model GW" >
   <i type="int" name="MODEL_GW">     0</i>
   <i name="MODEL_EPS0">     12.83233147</i>
   <i name="MODEL_ALPHA">      1.00000000</i>
  </separator>
  <separator name="linear response parameters" >
   <i type="logical" name="LEPSILON"> F  </i>
   <i type="logical" name="LRPA"> F  </i>
   <i type="logical" name="LNABLA"> F  </i>
   <i type="logical" name="LVEL"> F  </i>
   <i name="CSHIFT">      0.10000000</i>
   <i name="OMEGAMAX">     -1.00000000</i>
   <i name="DEG_THRESHOLD">      0.00200000</i>
   <i name="RTIME">     -0.10000000</i>
   <i name="WPLASMAI">      0.00000000</i>
   <v name="DFIELD">      0.00000000      0.00000000      0.00000000</v>
   <v name="WPLASMA">      0.00000000      0.00000000      0.00000000      0.00000000      0.00000000      0.00000000      0.00000000      0.00000000      0.00000000</v>
  </separator>
  <separator name="orbital magnetization" >
   <i type="logical" name="NUCIND"> F  </i>
   <v name="MAGPOS">      0.00000000      0.00000000      0.00000000</v>
   <i type="logical" name="LNICSALL"> T  </i>
   <i type="logical" name="ORBITALMAG"> F  </i>
   <i type="logical" name="LMAGBLOCH"> F  </i>
   <i type="logical" name="LCHIMAG"> F  </i>
   <i type="logical" name="LGAUGE"> T  </i>
   <i type="int" name="MAGATOM">     0</i>
   <v name="MAGDIPOL">      0.00000000      0.00000000      0.00000000</v>
   <v name="AVECCONST">      0.00000000      0.00000000      0.00000000</v>
  </separator>
  <separator name="response functions" >
   <i type="logical" name="LALL_IN_ONE"> F  </i>
   <i type="int" name="IALL_IN_ONE">    -1</i>
   <i type="int" name="NBANDS_WAVE">    -1</i>
   <i type="logical" name="LFINITE_TEMPERATURE"> F  </i>
   <i type="logical" name="LADDER"> F  </i>
   <i type="logical" name="LRPAFORCE"> F  </i>
   <i type="logical" name="LFXC"> F  </i>
   <i type="logical" name="LHARTREE"> T  </i>
   <i type="int" name="IBSE">     0</i>
   <v type="int" name="KPOINT">    -1     0     0     0</v>
   <i type="logical" name="LTCTC"> F  </i>
   <i type="logical" name="LTCTE"> F  </i>
   <i type="logical" name="LTETE"> F  </i>
   <i type="logical" name="LTRIPLET"> F  </i>
   <i type="logical" name="LFXCEPS"> F  </i>
   <i type="logical" name="LFXHEG"> F  </i>
   <i type="int" name="NATURALO">     2</i>
   <i type="logical" name="LHOLEGF"> F  </i>
   <i type="logical" name="L2ORDER"> F  </i>
   <i type="logical" name="LDMP1"> F  </i>
   <i type="logical" name="LMP2LT"> F  </i>
   <i type="logical" name="LSMP2LT"> F  </i>
   <i type="logical" name="LGWLF"> F  </i>
   <i name="ENCUTGW">     -1.60000002</i>
   <i name="ENCUTGWSOFT">     -1.60000002</i>
   <i name="ENCUTLF">     -1.00000000</i>
   <i type="logical" name="ESF_SPLINES"> F  </i>
   <i name="ESF_CONV">      0.01000000</i>
   <i type="int" name="ESF_NINTER">    15</i>
   <i type="int" name="LMAXMP2">    -1</i>
   <i name="SCISSOR">      0.00000000</i>
   <i type="int" name="NOMEGA">     0</i>
   <i type="int" name="NOMEGAR">     0</i>
   <i type="int" name="NBANDSGW">    -1</i>
   <i type="int" name="NBANDSO">    -1</i>
   <i type="int" name="NBANDSV">    -1</i>
   <i type="int" name="NELMGW">     1</i>
   <i type="int" name="NELMHF">     1</i>
   <i type="int" name="DIM">     3</i>
   <i type="int" name="IESPILON">     4</i>
   <i type="int" name="ANTIRES">     0</i>
   <i name="OMEGAMAX">    -30.00000000</i>
   <i name="OMEGAMIN">    -30.00000000</i>
   <i name="OMEGATL">   -200.00000000</i>
   <i type="int" name="OMEGAGRID">     0</i>
   <i name="CSHIFT">     -0.10000000</i>
   <i type="logical" name="LSELFENERGY"> F  </i>
   <i type="logical" name="LSPECTRAL"> F  </i>
   <i type="logical" name="LSPECTRALGW"> F  </i>
   <i type="logical" name="LSINGLES"> F  </i>
   <i type="logical" name="LFERMIGW"> F  </i>
   <i type="logical" name="ODDONLYGW"> F  </i>
   <i type="logical" name="EVENONLYGW"> F  </i>
   <i type="int" name="NKREDLFX">     1</i>
   <i type="int" name="NKREDLFY">     1</i>
   <i type="int" name="NKREDLFZ">     1</i>
   <i type="int" name="MAXMEM">  2800</i>
   <i type="int" name="TELESCOPE">     0</i>
   <i type="int" name="NTAUPAR">    -1</i>
   <i type="int" name="NOMEGAPAR">    -1</i>
   <i name="DAMP_NEWTON">      0.80000001</i>
   <i name="LAMBDA">      1.00000000</i>
  </separator>
  <separator name="External order field" >
   <i name="OFIELD_KAPPA">      0.00000000</i>
   <v name="OFIELD_K">      0.00000000      0.00000000      0.00000000</v>
   <i name="OFIELD_Q6_NEAR">      0.00000000</i>
   <i name="OFIELD_Q6_FAR">      0.00000000</i>
   <i name="OFIELD_A">      0.00000000</i>
  </separator>
  <separator name="optional k-points parameters" >
   <i type="int" name="KPOINTS_OPT_MODE">     1</i>
   <i type="logical" name="LKPOINTS_OPT"> F  </i>
  </separator>
 </parameters>
 <atominfo>
  <atoms>      40 </atoms>
  <types>       4 </types>
  <array name="atoms" >
   <dimension dim="1">ion</dimension>
   <field type="string">element</field>
   <field type="int">atomtype</field>
   <set>
    <rc><c>Bi</c><c>   1</c></rc>
    <rc><c>Bi</c><c>   1</c></rc>
    <rc><c>Bi</c><c>   1</c></rc>
    <rc><c>Bi</c><c>   1</c></rc>
    <rc><c>Bi</c><c>   1</c></rc>
    <rc><c>Bi</c><c>   1</c></rc>
    <rc><c>Bi</c><c>   1</c></rc>
    <rc><c>Bi</c><c>   1</c></rc>
    <rc><c>Bi</c><c>   1</c></rc>
    <rc><c>Bi</c><c>   1</c></rc>
    <rc><c>Bi</c><c>   1</c></rc>
    <rc><c>Bi</c><c>   1</c></rc>
    <rc><c>Bi</c><c>   1</c></rc>
    <rc><c>Bi</c><c>   1</c></rc>
    <rc><c>Bi</c><c>   1</c></rc>
    <rc><c>Bi</c><c>   1</c></rc>
    <rc><c>Se</c><c>   2</c></rc>
    <rc><c>Se</c><c>   2</c></rc>
    <rc><c>Se</c><c>   2</c></rc>
    <rc><c>Se</c><c>   2</c></rc>
    <rc><c>Se</c><c>   2</c></rc>
    <rc><c>Se</c><c>   2</c></rc>
    <rc><c>Se</c><c>   2</c></rc>
    <rc><c>O </c><c>   3</c></rc>
    <rc><c>O </c><c>   3</c></rc>
    <rc><c>O </c><c>   3</c></rc>
    <rc><c>O </c><c>   3</c></rc>
    <rc><c>O </c><c>   3</c></rc>
    <rc><c>O </c><c>   3</c></rc>
    <rc><c>O </c><c>   3</c></rc>
    <rc><c>O </c><c>   3</c></rc>
    <rc><c>O </c><c>   3</c></rc>
    <rc><c>O </c><c>   3</c></rc>
    <rc><c>O </c><c>   3</c></rc>
    <rc><c>O </c><c>   3</c></rc>
    <rc><c>O </c><c>   3</c></rc>
    <rc><c>O </c><c>   3</c></rc>
    <rc><c>O </c><c>   3</c></rc>
    <rc><c>O </c><c>   3</c></rc>
    <rc><c>S </c><c>   4</c></rc>
   </set>
  </array>
  <array name="atomtypes" >
   <dimension dim="1">type</dimension>
   <field type="int">atomspertype</field>
   <field type="string">element</field>
   <field>mass</field>
   <field>valence</field>
   <field type="string">pseudopotential</field>
   <set>
    <rc><c>  16</c><c>Bi</c><c>    208.98000000</c><c>     15.00000000</c><c>  PAW_PBE Bi_d 06Sep2000                </c></rc>
    <rc><c>   7</c><c>Se</c><c>     78.96000000</c><c>      6.00000000</c><c>  PAW_PBE Se 06Sep2000                  </c></rc>
    <rc><c>  16</c><c>O </c><c>     16.00000000</c><c>      6.00000000</c><c>  PAW_PBE O 08Apr2002                   </c></rc>
    <rc><c>   1</c><c>S </c><c>     32.06600000</c><c>      6.00000000</c><c>  PAW_PBE S 06Sep2000                   </c></rc>
   </set>
  </array>
 </atominfo>
 <structure name="initialpos" >
  <crystal>
   <varray name="basis" >
    <v>       8.15376541       0.00000000       0.00000000 </v>
    <v>       0.00000000       8.15376541       0.00000000 </v>
    <v>       0.00000000       0.00000000      12.86760988 </v>
   </varray>
   <i name="volume">    855.48876452 </i>
   <varray name="rec_basis" >
    <v>       0.12264272       0.00000000       0.00000000 </v>
    <v>       0.00000000       0.12264272       0.00000000 </v>
    <v>       0.00000000       0.00000000       0.07771451 </v>
   </varray>
  </crystal>
  <varray name="positions" >
   <v>       0.24687416       0.24687416       0.84924287 </v>
   <v>       0.75312584       0.24687416       0.84924287 </v>
   <v>       0.24687416       0.75312584       0.84924287 </v>
   <v>       0.75312584       0.75312584       0.84924287 </v>
   <v>       0.00000000       0.00000000       0.64415816 </v>
   <v>       0.50000000       0.00000000       0.65578428 </v>
   <v>       0.00000000       0.50000000       0.65578428 </v>
   <v>       0.50000000       0.50000000       0.66174195 </v>
   <v>       0.00000000       0.00000000       0.35584184 </v>
   <v>       0.50000000       0.00000000       0.34421572 </v>
   <v>       0.00000000       0.50000000       0.34421572 </v>
   <v>       0.50000000       0.50000000       0.33825805 </v>
   <v>       0.24687416       0.24687416       0.15075713 </v>
   <v>       0.75312584       0.24687416       0.15075713 </v>
   <v>       0.24687416       0.75312584       0.15075713 </v>
   <v>       0.75312584       0.75312584       0.15075713 </v>
   <v>       0.50000000       0.00000000       0.00000000 </v>
   <v>       0.00000000       0.50000000       0.00000000 </v>
   <v>       0.50000000       0.50000000       0.00000000 </v>
   <v>       0.23507661       0.23507661       0.50000000 </v>
   <v>       0.76492339       0.23507661       0.50000000 </v>
   <v>       0.23507661       0.76492339       0.50000000 </v>
   <v>       0.76492339       0.76492339       0.50000000 </v>
   <v>       0.00000000       0.25397127       0.75285482 </v>
   <v>       0.50000000       0.25254954       0.75113934 </v>
   <v>       0.00000000       0.74602873       0.75285482 </v>
   <v>       0.50000000       0.74745046       0.75113934 </v>
   <v>       0.25397127       0.00000000       0.75285482 </v>
   <v>       0.74602873       0.00000000       0.75285482 </v>
   <v>       0.25254954       0.50000000       0.75113934 </v>
   <v>       0.74745046       0.50000000       0.75113934 </v>
   <v>       0.25397127       0.00000000       0.24714518 </v>
   <v>       0.74602873       0.00000000       0.24714518 </v>
   <v>       0.25254954       0.50000000       0.24886066 </v>
   <v>       0.74745046       0.50000000       0.24886066 </v>
   <v>       0.00000000       0.25397127       0.24714518 </v>
   <v>       0.50000000       0.25254954       0.24886066 </v>
   <v>       0.00000000       0.74602873       0.24714518 </v>
   <v>       0.50000000       0.74745046       0.24886066 </v>
   <v>       0.00000000       0.00000000       0.00000000 </v>
  </varray>
 </structure>
 <calculation>
  <scstep>
   <time name="dav">   38.46   38.48</time>
   <time name="total">   39.40   39.42</time>
   <energy>
    <i name="alphaZ">   1180.79420070 </i>
    <i name="ewald"> -27711.27472275 </i>
    <i name="hartreedc"> -12528.45486114 </i>
    <i name="XCdc">   1225.21198948 </i>
    <i name="pawpsdc">  34040.00696010 </i>
    <i name="pawaedc"> -33495.80632930 </i>
    <i name="eentropy">     -0.01053222 </i>
    <i name="bandstr">   2272.95074085 </i>
    <i name="atom">  40341.65184589 </i>
    <i name="e_fr_energy">   5325.06929163 </i>
    <i name="e_wo_entrp">   5325.07982385 </i>
    <i name="e_0_energy">   5325.07455774 </i>
   </energy>
  </scstep>
  <scstep>
   <time name="dav">   38.55   38.56</time>
   <time name="total">   38.55   38.56</time>
   <energy>
    <i name="e_fr_energy">    858.05532764 </i>
    <i name="e_wo_entrp">    858.06277045 </i>
    <i name="e_0_energy">    858.05904904 </i>
   </energy>
  </scstep>
  <scstep>
   <time name="dav">   41.78   41.79</time>
   <time name="total">   41.79   41.79</time>
   <energy>
    <i name="e_fr_energy">   -127.19290486 </i>
    <i name="e_wo_entrp">   -127.19290486 </i>
    <i name="e_0_energy">   -127.19290486 </i>
   </energy>
  </scstep>
  <scstep>
   <time name="dav">   43.20   43.21</time>
   <time name="total">   43.20   43.21</time>
   <energy>
    <i name="e_fr_energy">   -237.78936507 </i>
    <i name="e_wo_entrp">   -237.78936507 </i>
    <i name="e_0_energy">   -237.78936507 </i>
   </energy>
  </scstep>
  <scstep>
   <time name="dav">   45.25   45.25</time>
   <time name="total">   46.67   46.67</time>
   <energy>
    <i name="e_fr_energy">   -243.24626880 </i>
    <i name="e_wo_entrp">   -243.24626880 </i>
    <i name="e_0_energy">   -243.24626880 </i>
   </energy>
  </scstep>
  <scstep>
   <time name="dav">   47.53   47.56</time>
   <time name="total">   49.89   49.91</time>
   <energy>
    <i name="e_fr_energy">   -207.57199709 </i>
    <i name="e_wo_entrp">   -207.57199709 </i>
    <i name="e_0_energy">   -207.57199709 </i>
   </energy>
  </scstep>
  <scstep>
   <time name="dav">   41.32   41.35</time>
   <time name="total">   43.69   43.73</time>
   <energy>
    <i name="e_fr_energy">   -206.52345836 </i>
    <i name="e_wo_entrp">   -206.52156542 </i>
    <i name="e_0_energy">   -206.52251189 </i>
   </energy>
  </scstep>
  <scstep>
   <time name="dav">   47.71   47.75</time>
   <time name="total">   50.08   50.12</time>
   <energy>
    <i name="e_fr_energy">   -206.67087269 </i>
    <i name="e_wo_entrp">   -206.66900152 </i>
    <i name="e_0_energy">   -206.66993711 </i>
   </energy>
  </scstep>
  <scstep>
   <time name="dav">   46.72   46.72</time>
   <time name="total">   49.06   49.07</time>
   <energy>
    <i name="e_fr_energy">   -206.62893059 </i>
    <i name="e_wo_entrp">   -206.62706657 </i>
    <i name="e_0_energy">   -206.62799858 </i>
   </energy>
  </scstep>
  <scstep>
   <time name="dav">   46.48   46.51</time>
   <time name="total">   48.83   48.86</time>
   <energy>
    <i name="e_fr_energy">   -206.61625806 </i>
    <i name="e_wo_entrp">   -206.61439119 </i>
    <i name="e_0_energy">   -206.61532462 </i>
   </energy>
  </scstep>
  <scstep>
   <time name="dav">   48.31   48.31</time>
   <time name="total">   50.66   50.67</time>
   <energy>
    <i name="e_fr_energy">   -206.61887908 </i>
    <i name="e_wo_entrp">   -206.61700677 </i>
    <i name="e_0_energy">   -206.61794292 </i>
   </energy>
  </scstep>
  <scstep>
   <time name="dav">   45.37   45.46</time>
   <time name="total">   47.72   47.82</time>
   <energy>
    <i name="e_fr_energy">   -206.62040724 </i>
    <i name="e_wo_entrp">   -206.61852860 </i>
    <i name="e_0_energy">   -206.61946792 </i>
   </energy>
  </scstep>
  <scstep>
   <time name="dav">   44.16   44.16</time>
   <time name="total">   46.52   46.52</time>
   <energy>
    <i name="e_fr_energy">   -206.62038056 </i>
    <i name="e_wo_entrp">   -206.61850133 </i>
    <i name="e_0_energy">   -206.61944094 </i>
   </energy>
  </scstep>
  <scstep>
   <time name="dav">   44.32   44.32</time>
   <time name="total">   46.67   46.67</time>
   <energy>
    <i name="e_fr_energy">   -206.62032470 </i>
    <i name="e_wo_entrp">   -206.61844678 </i>
    <i name="e_0_energy">   -206.61938574 </i>
   </energy>
  </scstep>
  <scstep>
   <time name="dav">   47.17   47.18</time>
   <time name="total">   49.53   49.54</time>
   <energy>
    <i name="e_fr_energy">   -206.62031888 </i>
    <i name="e_wo_entrp">   -206.61844174 </i>
    <i name="e_0_energy">   -206.61938031 </i>
   </energy>
  </scstep>
  <scstep>
   <time name="dav">   47.57   47.57</time>
   <time name="total">   49.93   49.93</time>
   <energy>
    <i name="e_fr_energy">   -206.62031839 </i>
    <i name="e_wo_entrp">   -206.61844174 </i>
    <i name="e_0_energy">   -206.61938007 </i>
   </energy>
  </scstep>
  <scstep>
   <time name="dav">   42.42   42.42</time>
   <time name="total">   44.77   44.78</time>
   <energy>
    <i name="e_fr_energy">   -206.62031723 </i>
    <i name="e_wo_entrp">   -206.61844036 </i>
    <i name="e_0_energy">   -206.61937880 </i>
   </energy>
  </scstep>
  <scstep>
   <time name="dav">   43.79   43.79</time>
   <time name="total">   46.16   46.16</time>
   <energy>
    <i name="e_fr_energy">   -206.62031750 </i>
    <i name="e_wo_entrp">   -206.61844067 </i>
    <i name="e_0_energy">   -206.61937908 </i>
   </energy>
  </scstep>
  <scstep>
   <time name="dav">   36.94   36.94</time>
   <time name="total">   39.29   39.29</time>
   <energy>
    <i name="e_fr_energy">   -206.62031758 </i>
    <i name="e_wo_entrp">   -206.61844077 </i>
    <i name="e_0_energy">   -206.61937918 </i>
   </energy>
  </scstep>
  <scstep>
   <time name="dav">   28.66   28.67</time>
   <time name="total">   31.06   31.07</time>
   <energy>
    <i name="e_fr_energy">   -206.62031759 </i>
    <i name="e_wo_entrp">   -206.61844077 </i>
    <i name="e_0_energy">   -206.61937918 </i>
   </energy>
  </scstep>
  <scstep>
   <time name="dav">   27.94   27.95</time>
   <time name="total">   28.90   28.91</time>
   <energy>
    <i name="alphaZ">   1180.79420070 </i>
    <i name="ewald"> -27711.27472275 </i>
    <i name="hartreedc"> -12664.53793020 </i>
    <i name="XCdc">   1241.40743250 </i>
    <i name="pawpsdc">  35528.97399343 </i>
    <i name="pawaedc"> -34918.24593467 </i>
    <i name="eentropy">     -0.00187682 </i>
    <i name="bandstr">  -3205.38732566 </i>
    <i name="atom">  40341.65184589 </i>
    <i name="e_fr_energy">   -206.62031758 </i>
    <i name="e_wo_entrp">   -206.61844076 </i>
    <i name="e_0_energy">   -206.61937917 </i>
   </energy>
  </scstep>
  <structure>
   <crystal>
    <varray name="basis" >
     <v>       8.15376541       0.00000000       0.00000000 </v>
     <v>       0.00000000       8.15376541       0.00000000 </v>
     <v>       0.00000000       0.00000000      12.86760988 </v>
    </varray>
    <i name="volume">    855.48876452 </i>
    <varray name="rec_basis" >
     <v>       0.12264272       0.00000000       0.00000000 </v>
     <v>       0.00000000       0.12264272       0.00000000 </v>
     <v>       0.00000000       0.00000000       0.07771451 </v>
    </varray>
   </crystal>
   <varray name="positions" >
    <v>       0.24687416       0.24687416       0.84924287 </v>
    <v>       0.75312584       0.24687416       0.84924287 </v>
    <v>       0.24687416       0.75312584       0.84924287 </v>
    <v>       0.75312584       0.75312584       0.84924287 </v>
    <v>       0.00000000       0.00000000       0.64415816 </v>
    <v>       0.50000000       0.00000000       0.65578428 </v>
    <v>       0.00000000       0.50000000       0.65578428 </v>
    <v>       0.50000000       0.50000000       0.66174195 </v>
    <v>       0.00000000       0.00000000       0.35584184 </v>
    <v>       0.50000000       0.00000000       0.34421572 </v>
    <v>       0.00000000       0.50000000       0.34421572 </v>
    <v>       0.50000000       0.50000000       0.33825805 </v>
    <v>       0.24687416       0.24687416       0.15075713 </v>
    <v>       0.75312584       0.24687416       0.15075713 </v>
    <v>       0.24687416       0.75312584       0.15075713 </v>
    <v>       0.75312584       0.75312584       0.15075713 </v>
    <v>       0.50000000       0.00000000       0.00000000 </v>
    <v>       0.00000000       0.50000000       0.00000000 </v>
    <v>       0.50000000       0.50000000       0.00000000 </v>
    <v>       0.23507661       0.23507661       0.50000000 </v>
    <v>       0.76492339       0.23507661       0.50000000 </v>
    <v>       0.23507661       0.76492339       0.50000000 </v>
    <v>       0.76492339       0.76492339       0.50000000 </v>
    <v>       0.00000000       0.25397127       0.75285482 </v>
    <v>       0.50000000       0.25254954       0.75113934 </v>
    <v>       0.00000000       0.74602873       0.75285482 </v>
    <v>       0.50000000       0.74745046       0.75113934 </v>
    <v>       0.25397127       0.00000000       0.75285482 </v>
    <v>       0.74602873       0.00000000       0.75285482 </v>
    <v>       0.25254954       0.50000000       0.75113934 </v>
    <v>       0.74745046       0.50000000       0.75113934 </v>
    <v>       0.25397127       0.00000000       0.24714518 </v>
    <v>       0.74602873       0.00000000       0.24714518 </v>
    <v>       0.25254954       0.50000000       0.24886066 </v>
    <v>       0.74745046       0.50000000       0.24886066 </v>
    <v>       0.00000000       0.25397127       0.24714518 </v>
    <v>       0.50000000       0.25254954       0.24886066 </v>
    <v>       0.00000000       0.74602873       0.24714518 </v>
    <v>       0.50000000       0.74745046       0.24886066 </v>
    <v>       0.00000000       0.00000000       0.00000000 </v>
   </varray>
  </structure>
  <varray name="forces" >
   <v>      -0.00000220      -0.00000220       0.00000703 </v>
   <v>       0.00000220      -0.00000220       0.00000703 </v>
   <v>      -0.00000220       0.00000220       0.00000703 </v>
   <v>       0.00000220       0.00000220       0.00000703 </v>
   <v>       0.00000000      -0.00000000      -0.00002230 </v>
   <v>      -0.00000000       0.00000000       0.00000719 </v>
   <v>      -0.00000000       0.00000000       0.00000719 </v>
   <v>      -0.00000000       0.00000000       0.00001639 </v>
   <v>      -0.00000000      -0.00000000       0.00002230 </v>
   <v>      -0.00000000      -0.00000000      -0.00000719 </v>
   <v>       0.00000000       0.00000000      -0.00000719 </v>
   <v>      -0.00000000       0.00000000      -0.00001639 </v>
   <v>      -0.00000220      -0.00000220      -0.00000703 </v>
   <v>       0.00000220      -0.00000220      -0.00000703 </v>
   <v>      -0.00000220       0.00000220      -0.00000703 </v>
   <v>       0.00000220       0.00000220      -0.00000703 </v>
   <v>      -0.00000000       0.00000000      -0.00000000 </v>
   <v>      -0.00000000      -0.00000000      -0.00000000 </v>
   <v>       0.00000000       0.00000000      -0.00000000 </v>
   <v>      -0.00000297      -0.00000297      -0.00000000 </v>
   <v>       0.00000297      -0.00000297      -0.00000000 </v>
   <v>      -0.00000297       0.00000297      -0.00000000 </v>
   <v>       0.00000297       0.00000297      -0.00000000 </v>
   <v>      -0.00000000       0.00000548       0.00000931 </v>
   <v>      -0.00000000       0.00000025       0.00000118 </v>
   <v>       0.00000000      -0.00000548       0.00000931 </v>
   <v>       0.00000000      -0.00000025       0.00000118 </v>
   <v>       0.00000548       0.00000000       0.00000931 </v>
   <v>      -0.00000548       0.00000000       0.00000931 </v>
   <v>       0.00000025       0.00000000       0.00000118 </v>
   <v>      -0.00000025       0.00000000       0.00000118 </v>
   <v>       0.00000548      -0.00000000      -0.00000931 </v>
   <v>      -0.00000548       0.00000000      -0.00000931 </v>
   <v>       0.00000025      -0.00000000      -0.00000118 </v>
   <v>      -0.00000025      -0.00000000      -0.00000118 </v>
   <v>      -0.00000000       0.00000548      -0.00000931 </v>
   <v>      -0.00000000       0.00000025      -0.00000118 </v>
   <v>       0.00000000      -0.00000548      -0.00000931 </v>
   <v>       0.00000000      -0.00000025      -0.00000118 </v>
   <v>       0.00000000      -0.00000000      -0.00000000 </v>
  </varray>
  <varray name="stress" >
   <v>     -73.23602622       0.00000000       0.00000000 </v>
   <v>       0.00000000     -73.23602622       0.00000000 </v>
   <v>       0.00000000       0.00000000     -53.62262537 </v>
  </varray>
  <energy>
   <i name="e_fr_energy">   -206.62031758 </i>
   <i name="e_wo_entrp">   -206.61844076 </i>
   <i name="e_0_energy">   -206.61937917 </i>
  </energy>
  <time name="totalsc">  967.36  967.66</time>
 </calculation>
 <calculation>
  <scstep>
   <time name="dav">   35.45   35.45</time>
   <time name="total">   37.81   37.81</time>
   <energy>
    <i name="alphaZ">   1180.79420070 </i>
    <i name="ewald"> -27711.27509910 </i>
    <i name="hartreedc"> -12664.53779423 </i>
    <i name="XCdc">   1241.40744552 </i>
    <i name="pawpsdc">  35528.96709843 </i>
    <i name="pawaedc"> -34918.23917552 </i>
    <i name="eentropy">     -0.00187682 </i>
    <i name="bandstr">  -3205.38696243 </i>
    <i name="atom">  40341.65184589 </i>
    <i name="e_fr_energy">   -206.62031757 </i>
    <i name="e_wo_entrp">   -206.61844075 </i>
    <i name="e_0_energy">   -206.61937916 </i>
   </energy>
  </scstep>
  <scstep>
   <time name="dav">   27.88   27.88</time>
   <time name="total">   30.25   30.25</time>
   <energy>
    <i name="e_fr_energy">   -206.62031758 </i>
    <i name="e_wo_entrp">   -206.61844075 </i>
    <i name="e_0_energy">   -206.61937916 </i>
   </energy>
  </scstep>
  <scstep>
   <time name="dav">   27.73   27.73</time>
   <time name="total">   30.08   30.08</time>
   <energy>
    <i name="e_fr_energy">   -206.62031758 </i>
    <i name="e_wo_entrp">   -206.61844075 </i>
    <i name="e_0_energy">   -206.61937917 </i>
   </energy>
  </scstep>
  <scstep>
   <time name="dav">   27.66   27.66</time>
   <time name="total">   30.01   30.01</time>
   <energy>
    <i name="e_fr_energy">   -206.62031758 </i>
    <i name="e_wo_entrp">   -206.61844075 </i>
    <i name="e_0_energy">   -206.61937917 </i>
   </energy>
  </scstep>
  <scstep>
   <time name="dav">   27.69   27.71</time>
   <time name="total">   28.61   28.63</time>
   <energy>
    <i name="alphaZ">   1180.79420070 </i>
    <i name="ewald"> -27711.27509910 </i>
    <i name="hartreedc"> -12664.53776348 </i>
    <i name="XCdc">   1241.40744124 </i>
    <i name="pawpsdc">  35528.96735013 </i>
    <i name="pawaedc"> -34918.23937625 </i>
    <i name="eentropy">     -0.00187682 </i>
    <i name="bandstr">  -3205.38703989 </i>
    <i name="atom">  40341.65184589 </i>
    <i name="e_fr_energy">   -206.62031758 </i>
    <i name="e_wo_entrp">   -206.61844076 </i>
    <i name="e_0_energy">   -206.61937917 </i>
   </energy>
  </scstep>
  <structure>
   <crystal>
    <varray name="basis" >
     <v>       8.15376541       0.00000000       0.00000000 </v>
     <v>       0.00000000       8.15376541       0.00000000 </v>
     <v>       0.00000000       0.00000000      12.86760988 </v>
    </varray>
    <i name="volume">    855.48876452 </i>
    <varray name="rec_basis" >
     <v>       0.12264272       0.00000000       0.00000000 </v>
     <v>       0.00000000       0.12264272       0.00000000 </v>
     <v>       0.00000000       0.00000000       0.07771451 </v>
    </varray>
   </crystal>
   <varray name="positions" >
    <v>       0.24687415       0.24687415       0.84924290 </v>
    <v>       0.75312585       0.24687415       0.84924290 </v>
    <v>       0.24687415       0.75312585       0.84924290 </v>
    <v>       0.75312585       0.75312585       0.84924290 </v>
    <v>       0.00000000       1.00000000       0.64415808 </v>
    <v>       0.50000000       0.00000000       0.65578431 </v>
    <v>       1.00000000       0.50000000       0.65578431 </v>
    <v>       0.50000000       0.50000000       0.66174201 </v>
    <v>       1.00000000       1.00000000       0.35584192 </v>
    <v>       0.50000000       1.00000000       0.34421569 </v>
    <v>       0.00000000       0.50000000       0.34421569 </v>
    <v>       0.50000000       0.50000000       0.33825799 </v>
    <v>       0.24687415       0.24687415       0.15075710 </v>
    <v>       0.75312585       0.24687415       0.15075710 </v>
    <v>       0.24687415       0.75312585       0.15075710 </v>
    <v>       0.75312585       0.75312585       0.15075710 </v>
    <v>       0.50000000       0.00000000       1.00000000 </v>
    <v>       1.00000000       0.50000000       1.00000000 </v>
    <v>       0.50000000       0.50000000       1.00000000 </v>
    <v>       0.23507659       0.23507659       0.50000000 </v>
    <v>       0.76492341       0.23507659       0.50000000 </v>
    <v>       0.23507659       0.76492341       0.50000000 </v>
    <v>       0.76492341       0.76492341       0.50000000 </v>
    <v>       1.00000000       0.25397130       0.75285485 </v>
    <v>       0.50000000       0.25254954       0.75113934 </v>
    <v>       0.00000000       0.74602870       0.75285485 </v>
    <v>       0.50000000       0.74745046       0.75113934 </v>
    <v>       0.25397130       0.00000000       0.75285485 </v>
    <v>       0.74602870       0.00000000       0.75285485 </v>
    <v>       0.25254954       0.50000000       0.75113934 </v>
    <v>       0.74745046       0.50000000       0.75113934 </v>
    <v>       0.25397130       1.00000000       0.24714515 </v>
    <v>       0.74602870       0.00000000       0.24714515 </v>
    <v>       0.25254954       0.50000000       0.24886066 </v>
    <v>       0.74745046       0.50000000       0.24886066 </v>
    <v>       1.00000000       0.25397130       0.24714515 </v>
    <v>       0.50000000       0.25254954       0.24886066 </v>
    <v>       0.00000000       0.74602870       0.24714515 </v>
    <v>       0.50000000       0.74745046       0.24886066 </v>
    <v>       0.00000000       1.00000000       1.00000000 </v>
   </varray>
  </structure>
  <varray name="forces" >
   <v>      -0.00000667      -0.00000667      -0.00001432 </v>
   <v>       0.00000667      -0.00000667      -0.00001432 </v>
   <v>      -0.00000667       0.00000667      -0.00001432 </v>
   <v>       0.00000667       0.00000667      -0.00001432 </v>
   <v>      -0.00000000      -0.00000000       0.00002700 </v>
   <v>       0.00000000      -0.00000000       0.00000488 </v>
   <v>       0.00000000       0.00000000       0.00000488 </v>
   <v>      -0.00000000       0.00000000      -0.00001697 </v>
   <v>       0.00000000       0.00000000      -0.00002700 </v>
   <v>      -0.00000000      -0.00000000      -0.00000488 </v>
   <v>       0.00000000      -0.00000000      -0.00000488 </v>
   <v>       0.00000000      -0.00000000       0.00001697 </v>
   <v>      -0.00000667      -0.00000667       0.00001432 </v>
   <v>       0.00000667      -0.00000667       0.00001432 </v>
   <v>      -0.00000667       0.00000667       0.00001432 </v>
   <v>       0.00000667       0.00000667       0.00001432 </v>
   <v>       0.00000000      -0.00000000      -0.00000000 </v>
   <v>      -0.00000000      -0.00000000      -0.00000000 </v>
   <v>      -0.00000000       0.00000000      -0.00000000 </v>
   <v>      -0.00000687      -0.00000687      -0.00000000 </v>
   <v>       0.00000687      -0.00000687      -0.00000000 </v>
   <v>      -0.00000687       0.00000687      -0.00000000 </v>
   <v>       0.00000687       0.00000687      -0.00000000 </v>
   <v>      -0.00000000       0.00000689       0.00000667 </v>
   <v>      -0.00000000       0.00000348       0.00000235 </v>
   <v>       0.00000000      -0.00000689       0.00000667 </v>
   <v>      -0.00000000      -0.00000348       0.00000235 </v>
   <v>       0.00000689      -0.00000000       0.00000667 </v>
   <v>      -0.00000689       0.00000000       0.00000667 </v>
   <v>       0.00000348      -0.00000000       0.00000235 </v>
   <v>      -0.00000348      -0.00000000       0.00000235 </v>
   <v>       0.00000689       0.00000000      -0.00000667 </v>
   <v>      -0.00000689       0.00000000      -0.00000667 </v>
   <v>       0.00000348       0.00000000      -0.00000235 </v>
   <v>      -0.00000348       0.00000000      -0.00000235 </v>
   <v>      -0.00000000       0.00000689      -0.00000667 </v>
   <v>       0.00000000       0.00000348      -0.00000235 </v>
   <v>      -0.00000000      -0.00000689      -0.00000667 </v>
   <v>      -0.00000000      -0.00000348      -0.00000235 </v>
   <v>      -0.00000000       0.00000000      -0.00000000 </v>
  </varray>
  <varray name="stress" >
   <v>     -73.23715324       0.00000000       0.00000000 </v>
   <v>       0.00000000     -73.23715324       0.00000000 </v>
   <v>      -0.00000000       0.00000000     -53.62382864 </v>
  </varray>
  <energy>
   <i name="e_fr_energy">   -206.62031758 </i>
   <i name="e_wo_entrp">   -206.61844076 </i>
   <i name="e_0_energy">   -206.61937917 </i>
  </energy>
  <time name="totalsc">  191.71  191.75</time>
 </calculation>
 <calculation>
  <scstep>
   <time name="dav">   27.67   27.68</time>
   <time name="total">   30.05   30.06</time>
   <energy>
    <i name="alphaZ">   1180.79420070 </i>
    <i name="ewald"> -27711.27499710 </i>
    <i name="hartreedc"> -12664.53788720 </i>
    <i name="XCdc">   1241.40744207 </i>
    <i name="pawpsdc">  35528.96731074 </i>
    <i name="pawaedc"> -34918.23933143 </i>
    <i name="eentropy">     -0.00187682 </i>
    <i name="bandstr">  -3205.38702442 </i>
    <i name="atom">  40341.65184589 </i>
    <i name="e_fr_energy">   -206.62031758 </i>
    <i name="e_wo_entrp">   -206.61844075 </i>
    <i name="e_0_energy">   -206.61937916 </i>
   </energy>
  </scstep>
  <scstep>
   <time name="dav">   27.70   27.70</time>
   <time name="total">   30.09   30.09</time>
   <energy>
    <i name="e_fr_energy">   -206.62031758 </i>
    <i name="e_wo_entrp">   -206.61844075 </i>
    <i name="e_0_energy">   -206.61937916 </i>
   </energy>
  </scstep>
  <scstep>
   <time name="dav">   27.54   27.54</time>
   <time name="total">   29.91   29.91</time>
   <energy>
    <i name="e_fr_energy">   -206.62031758 </i>
    <i name="e_wo_entrp">   -206.61844075 </i>
    <i name="e_0_energy">   -206.61937916 </i>
   </energy>
  </scstep>
  <scstep>
   <time name="dav">   27.58   27.58</time>
   <time name="total">   29.95   29.95</time>
   <energy>
    <i name="e_fr_energy">   -206.62031758 </i>
    <i name="e_wo_entrp">   -206.61844075 </i>
    <i name="e_0_energy">   -206.61937916 </i>
   </energy>
  </scstep>
  <scstep>
   <time name="dav">   27.37   27.38</time>
   <time name="total">   28.30   28.31</time>
   <energy>
    <i name="alphaZ">   1180.79420070 </i>
    <i name="ewald"> -27711.27499710 </i>
    <i name="hartreedc"> -12664.53787941 </i>
    <i name="XCdc">   1241.40744271 </i>
    <i name="pawpsdc">  35528.96716367 </i>
    <i name="pawaedc"> -34918.23918063 </i>
    <i name="eentropy">     -0.00187682 </i>
    <i name="bandstr">  -3205.38703659 </i>
    <i name="atom">  40341.65184589 </i>
    <i name="e_fr_energy">   -206.62031758 </i>
    <i name="e_wo_entrp">   -206.61844075 </i>
    <i name="e_0_energy">   -206.61937916 </i>
   </energy>
  </scstep>
  <structure>
   <crystal>
    <varray name="basis" >
     <v>       8.15376541       0.00000000       0.00000000 </v>
     <v>       0.00000000       8.15376541       0.00000000 </v>
     <v>       0.00000000       0.00000000      12.86760988 </v>
    </varray>
    <i name="volume">    855.48876452 </i>
    <varray name="rec_basis" >
     <v>       0.12264272       0.00000000       0.00000000 </v>
     <v>       0.00000000       0.12264272       0.00000000 </v>
     <v>       0.00000000       0.00000000       0.07771451 </v>
    </varray>
   </crystal>
   <varray name="positions" >
    <v>       0.24687415       0.24687415       0.84924289 </v>
    <v>       0.75312585       0.24687415       0.84924289 </v>
    <v>       0.24687415       0.75312585       0.84924289 </v>
    <v>       0.75312585       0.75312585       0.84924289 </v>
    <v>       0.00000000       0.00000000       0.64415810 </v>
    <v>       0.50000000       0.00000000       0.65578430 </v>
    <v>       0.00000000       0.50000000       0.65578430 </v>
    <v>       0.50000000       0.50000000       0.66174199 </v>
    <v>       0.00000000       0.00000000       0.35584190 </v>
    <v>       0.50000000       0.00000000       0.34421570 </v>
    <v>       0.00000000       0.50000000       0.34421570 </v>
    <v>       0.50000000       0.50000000       0.33825801 </v>
    <v>       0.24687415       0.24687415       0.15075711 </v>
    <v>       0.75312585       0.24687415       0.15075711 </v>
    <v>       0.24687415       0.75312585       0.15075711 </v>
    <v>       0.75312585       0.75312585       0.15075711 </v>
    <v>       0.50000000       0.00000000       0.00000000 </v>
    <v>       0.00000000       0.50000000       0.00000000 </v>
    <v>       0.50000000       0.50000000       0.00000000 </v>
    <v>       0.23507659       0.23507659       0.50000000 </v>
    <v>       0.76492341       0.23507659       0.50000000 </v>
    <v>       0.23507659       0.76492341       0.50000000 </v>
    <v>       0.76492341       0.76492341       0.50000000 </v>
    <v>       0.00000000       0.25397130       0.75285484 </v>
    <v>       0.50000000       0.25254954       0.75113934 </v>
    <v>       0.00000000       0.74602870       0.75285484 </v>
    <v>       0.50000000       0.74745046       0.75113934 </v>
    <v>       0.25397130       0.00000000       0.75285484 </v>
    <v>       0.74602870       0.00000000       0.75285484 </v>
    <v>       0.25254954       0.50000000       0.75113934 </v>
    <v>       0.74745046       0.50000000       0.75113934 </v>
    <v>       0.25397130       0.00000000       0.24714516 </v>
    <v>       0.74602870       0.00000000       0.24714516 </v>
    <v>       0.25254954       0.50000000       0.24886066 </v>
    <v>       0.74745046       0.50000000       0.24886066 </v>
    <v>       0.00000000       0.25397130       0.24714516 </v>
    <v>       0.50000000       0.25254954       0.24886066 </v>
    <v>       0.00000000       0.74602870       0.24714516 </v>
    <v>       0.50000000       0.74745046       0.24886066 </v>
    <v>       0.00000000       0.00000000       0.00000000 </v>
   </varray>
  </structure>
  <varray name="forces" >
   <v>      -0.00001217      -0.00001217       0.00000372 </v>
   <v>       0.00001217      -0.00001217       0.00000372 </v>
   <v>      -0.00001217       0.00001217       0.00000372 </v>
   <v>       0.00001217       0.00001217       0.00000372 </v>
   <v>       0.00000000      -0.00000000      -0.00001584 </v>
   <v>       0.00000000      -0.00000000       0.00002392 </v>
   <v>      -0.00000000      -0.00000000       0.00002392 </v>
   <v>       0.00000000      -0.00000000       0.00002124 </v>
   <v>      -0.00000000       0.00000000       0.00001584 </v>
   <v>      -0.00000000      -0.00000000      -0.00002392 </v>
   <v>      -0.00000000      -0.00000000      -0.00002392 </v>
   <v>      -0.00000000      -0.00000000      -0.00002124 </v>
   <v>      -0.00001217      -0.00001217      -0.00000372 </v>
   <v>       0.00001217      -0.00001217      -0.00000372 </v>
   <v>      -0.00001217       0.00001217      -0.00000372 </v>
   <v>       0.00001217       0.00001217      -0.00000372 </v>
   <v>       0.00000000      -0.00000000       0.00000000 </v>
   <v>       0.00000000      -0.00000000       0.00000000 </v>
   <v>       0.00000000       0.00000000       0.00000000 </v>
   <v>      -0.00000670      -0.00000670       0.00000000 </v>
   <v>       0.00000670      -0.00000670       0.00000000 </v>
   <v>      -0.00000670       0.00000670       0.00000000 </v>
   <v>       0.00000670       0.00000670       0.00000000 </v>
   <v>      -0.00000000       0.00000795       0.00000883 </v>
   <v>      -0.00000000       0.00000350       0.00000183 </v>
   <v>      -0.00000000      -0.00000795       0.00000883 </v>
   <v>       0.00000000      -0.00000350       0.00000183 </v>
   <v>       0.00000795      -0.00000000       0.00000883 </v>
   <v>      -0.00000795      -0.00000000       0.00000883 </v>
   <v>       0.00000350      -0.00000000       0.00000183 </v>
   <v>      -0.00000350       0.00000000       0.00000183 </v>
   <v>       0.00000795      -0.00000000      -0.00000883 </v>
   <v>      -0.00000795      -0.00000000      -0.00000883 </v>
   <v>       0.00000350      -0.00000000      -0.00000183 </v>
   <v>      -0.00000350      -0.00000000      -0.00000183 </v>
   <v>      -0.00000000       0.00000795      -0.00000883 </v>
   <v>       0.00000000       0.00000350      -0.00000183 </v>
   <v>       0.00000000      -0.00000795      -0.00000883 </v>
   <v>       0.00000000      -0.00000350      -0.00000183 </v>
   <v>      -0.00000000      -0.00000000       0.00000000 </v>
  </varray>
  <varray name="stress" >
   <v>     -73.23715138       0.00000000       0.00000000 </v>
   <v>       0.00000000     -73.23715138       0.00000000 </v>
   <v>      -0.00000000       0.00000000     -53.62382991 </v>
  </varray>
  <energy>
   <i name="e_fr_energy">   -206.62031758 </i>
   <i name="e_wo_entrp">   -206.61844075 </i>
   <i name="e_0_energy">   -206.61937916 </i>
  </energy>
  <time name="totalsc">  183.14  183.18</time>
 </calculation>
 <calculation>
  <scstep>
   <time name="dav">   27.20   27.21</time>
   <time name="total">   29.58   29.59</time>
   <energy>
    <i name="alphaZ">   1180.79420070 </i>
    <i name="ewald"> -27711.27507519 </i>
    <i name="hartreedc"> -12664.53780144 </i>
    <i name="XCdc">   1241.40744290 </i>
    <i name="pawpsdc">  35528.96714338 </i>
    <i name="pawaedc"> -34918.23915989 </i>
    <i name="eentropy">     -0.00187682 </i>
    <i name="bandstr">  -3205.38703710 </i>
    <i name="atom">  40341.65184589 </i>
    <i name="e_fr_energy">   -206.62031758 </i>
    <i name="e_wo_entrp">   -206.61844075 </i>
    <i name="e_0_energy">   -206.61937916 </i>
   </energy>
  </scstep>
  <scstep>
   <time name="dav">   27.08   27.08</time>
   <time name="total">   29.43   29.43</time>
   <energy>
    <i name="e_fr_energy">   -206.62031758 </i>
    <i name="e_wo_entrp">   -206.61844075 </i>
    <i name="e_0_energy">   -206.61937916 </i>
   </energy>
  </scstep>
  <scstep>
   <time name="dav">   26.99   26.99</time>
   <time name="total">   29.35   29.35</time>
   <energy>
    <i name="e_fr_energy">   -206.62031758 </i>
    <i name="e_wo_entrp">   -206.61844075 </i>
    <i name="e_0_energy">   -206.61937916 </i>
   </energy>
  </scstep>
  <scstep>
   <time name="dav">   26.83   26.84</time>
   <time name="total">   29.22   29.23</time>
   <energy>
    <i name="e_fr_energy">   -206.62031758 </i>
    <i name="e_wo_entrp">   -206.61844075 </i>
    <i name="e_0_energy">   -206.61937916 </i>
   </energy>
  </scstep>
  <scstep>
   <time name="dav">   26.78   26.80</time>
   <time name="total">   27.74   27.75</time>
   <energy>
    <i name="alphaZ">   1180.79420070 </i>
    <i name="ewald"> -27711.27507519 </i>
    <i name="hartreedc"> -12664.53781161 </i>
    <i name="XCdc">   1241.40744303 </i>
    <i name="pawpsdc">  35528.96718131 </i>
    <i name="pawaedc"> -34918.23919881 </i>
    <i name="eentropy">     -0.00187682 </i>
    <i name="bandstr">  -3205.38702608 </i>
    <i name="atom">  40341.65184589 </i>
    <i name="e_fr_energy">   -206.62031757 </i>
    <i name="e_wo_entrp">   -206.61844075 </i>
    <i name="e_0_energy">   -206.61937916 </i>
   </energy>
  </scstep>
  <structure>
   <crystal>
    <varray name="basis" >
     <v>       8.15376541       0.00000000       0.00000000 </v>
     <v>       0.00000000       8.15376541       0.00000000 </v>
     <v>       0.00000000       0.00000000      12.86760988 </v>
    </varray>
    <i name="volume">    855.48876452 </i>
    <varray name="rec_basis" >
     <v>       0.12264272       0.00000000       0.00000000 </v>
     <v>       0.00000000       0.12264272       0.00000000 </v>
     <v>       0.00000000       0.00000000       0.07771451 </v>
    </varray>
   </crystal>
   <varray name="positions" >
    <v>       0.24687415       0.24687415       0.84924290 </v>
    <v>       0.75312585       0.24687415       0.84924290 </v>
    <v>       0.24687415       0.75312585       0.84924290 </v>
    <v>       0.75312585       0.75312585       0.84924290 </v>
    <v>       0.00000000       1.00000000       0.64415808 </v>
    <v>       0.50000000       0.00000000       0.65578431 </v>
    <v>       1.00000000       0.50000000       0.65578431 </v>
    <v>       0.50000000       0.50000000       0.66174201 </v>
    <v>       1.00000000       1.00000000       0.35584192 </v>
    <v>       0.50000000       1.00000000       0.34421569 </v>
    <v>       0.00000000       0.50000000       0.34421569 </v>
    <v>       0.50000000       0.50000000       0.33825799 </v>
    <v>       0.24687415       0.24687415       0.15075710 </v>
    <v>       0.75312585       0.24687415       0.15075710 </v>
    <v>       0.24687415       0.75312585       0.15075710 </v>
    <v>       0.75312585       0.75312585       0.15075710 </v>
    <v>       0.50000000       0.00000000       1.00000000 </v>
    <v>       1.00000000       0.50000000       1.00000000 </v>
    <v>       0.50000000       0.50000000       1.00000000 </v>
    <v>       0.23507659       0.23507659       0.50000000 </v>
    <v>       0.76492341       0.23507659       0.50000000 </v>
    <v>       0.23507659       0.76492341       0.50000000 </v>
    <v>       0.76492341       0.76492341       0.50000000 </v>
    <v>       1.00000000       0.25397130       0.75285485 </v>
    <v>       0.50000000       0.25254954       0.75113934 </v>
    <v>       0.00000000       0.74602870       0.75285485 </v>
    <v>       0.50000000       0.74745046       0.75113934 </v>
    <v>       0.25397130       0.00000000       0.75285485 </v>
    <v>       0.74602870       0.00000000       0.75285485 </v>
    <v>       0.25254954       0.50000000       0.75113934 </v>
    <v>       0.74745046       0.50000000       0.75113934 </v>
    <v>       0.25397130       1.00000000       0.24714515 </v>
    <v>       0.74602870       0.00000000       0.24714515 </v>
    <v>       0.25254954       0.50000000       0.24886066 </v>
    <v>       0.74745046       0.50000000       0.24886066 </v>
    <v>       1.00000000       0.25397130       0.24714515 </v>
    <v>       0.50000000       0.25254954       0.24886066 </v>
    <v>       0.00000000       0.74602870       0.24714515 </v>
    <v>       0.50000000       0.74745046       0.24886066 </v>
    <v>       0.00000000       1.00000000       1.00000000 </v>
   </varray>
  </structure>
  <varray name="forces" >
   <v>      -0.00000855      -0.00000855      -0.00000857 </v>
   <v>       0.00000855      -0.00000855      -0.00000857 </v>
   <v>      -0.00000855       0.00000855      -0.00000857 </v>
   <v>       0.00000855       0.00000855      -0.00000857 </v>
   <v>      -0.00000000      -0.00000000       0.00001271 </v>
   <v>       0.00000000      -0.00000000       0.00001120 </v>
   <v>       0.00000000       0.00000000       0.00001120 </v>
   <v>      -0.00000000       0.00000000      -0.00000313 </v>
   <v>       0.00000000      -0.00000000      -0.00001271 </v>
   <v>      -0.00000000       0.00000000      -0.00001120 </v>
   <v>       0.00000000       0.00000000      -0.00001120 </v>
   <v>       0.00000000      -0.00000000       0.00000313 </v>
   <v>      -0.00000855      -0.00000855       0.00000857 </v>
   <v>       0.00000855      -0.00000855       0.00000857 </v>
   <v>      -0.00000855       0.00000855       0.00000857 </v>
   <v>       0.00000855       0.00000855       0.00000857 </v>
   <v>       0.00000000       0.00000000      -0.00000000 </v>
   <v>       0.00000000      -0.00000000      -0.00000000 </v>
   <v>      -0.00000000       0.00000000      -0.00000000 </v>
   <v>      -0.00000684      -0.00000684      -0.00000000 </v>
   <v>       0.00000684      -0.00000684      -0.00000000 </v>
   <v>      -0.00000684       0.00000684      -0.00000000 </v>
   <v>       0.00000684       0.00000684      -0.00000000 </v>
   <v>      -0.00000000       0.00000678       0.00000708 </v>
   <v>      -0.00000000       0.00000334       0.00000204 </v>
   <v>       0.00000000      -0.00000678       0.00000708 </v>
   <v>       0.00000000      -0.00000334       0.00000204 </v>
   <v>       0.00000678      -0.00000000       0.00000708 </v>
   <v>      -0.00000678      -0.00000000       0.00000708 </v>
   <v>       0.00000334      -0.00000000       0.00000204 </v>
   <v>      -0.00000334      -0.00000000       0.00000204 </v>
   <v>       0.00000678       0.00000000      -0.00000708 </v>
   <v>      -0.00000678      -0.00000000      -0.00000708 </v>
   <v>       0.00000334       0.00000000      -0.00000204 </v>
   <v>      -0.00000334       0.00000000      -0.00000204 </v>
   <v>       0.00000000       0.00000678      -0.00000708 </v>
   <v>       0.00000000       0.00000334      -0.00000204 </v>
   <v>       0.00000000      -0.00000678      -0.00000708 </v>
   <v>      -0.00000000      -0.00000334      -0.00000204 </v>
   <v>       0.00000000      -0.00000000      -0.00000000 </v>
  </varray>
  <varray name="stress" >
   <v>     -73.23714702       0.00000000      -0.00000000 </v>
   <v>       0.00000000     -73.23714702       0.00000000 </v>
   <v>      -0.00000000       0.00000000     -53.62382200 </v>
  </varray>
  <energy>
   <i name="e_fr_energy">   -206.62031757 </i>
   <i name="e_wo_entrp">   -206.61844075 </i>
   <i name="e_0_energy">   -206.61937916 </i>
  </energy>
  <time name="totalsc">  180.17  180.21</time>
 </calculation>
 <calculation>
  <scstep>
   <time name="dav">   32.56   32.57</time>
   <time name="total">   34.94   34.95</time>
   <energy>
    <i name="alphaZ">   1180.79420070 </i>
    <i name="ewald"> -27711.27367520 </i>
    <i name="hartreedc"> -12664.53913963 </i>
    <i name="XCdc">   1241.40744822 </i>
    <i name="pawpsdc">  35528.96717448 </i>
    <i name="pawaedc"> -34918.23919194 </i>
    <i name="eentropy">     -0.00187682 </i>
    <i name="bandstr">  -3205.38710327 </i>
    <i name="atom">  40341.65184589 </i>
    <i name="e_fr_energy">   -206.62031758 </i>
    <i name="e_wo_entrp">   -206.61844076 </i>
    <i name="e_0_energy">   -206.61937917 </i>
   </energy>
  </scstep>
  <scstep>
   <time name="dav">   26.54   26.54</time>
   <time name="total">   28.91   28.91</time>
   <energy>
    <i name="e_fr_energy">   -206.62031758 </i>
    <i name="e_wo_entrp">   -206.61844076 </i>
    <i name="e_0_energy">   -206.61937917 </i>
   </energy>
  </scstep>
  <scstep>
   <time name="dav">   26.45   26.47</time>
   <time name="total">   28.81   28.83</time>
   <energy>
    <i name="e_fr_energy">   -206.62031758 </i>
    <i name="e_wo_entrp">   -206.61844076 </i>
    <i name="e_0_energy">   -206.61937917 </i>
   </energy>
  </scstep>
  <scstep>
   <time name="dav">   26.41   26.42</time>
   <time name="total">   28.78   28.80</time>
   <energy>
    <i name="e_fr_energy">   -206.62031758 </i>
    <i name="e_wo_entrp">   -206.61844075 </i>
    <i name="e_0_energy">   -206.61937917 </i>
   </energy>
  </scstep>
  <scstep>
   <time name="dav">   26.41   26.41</time>
   <time name="total">   27.35   27.35</time>
   <energy>
    <i name="alphaZ">   1180.79420070 </i>
    <i name="ewald"> -27711.27367520 </i>
    <i name="hartreedc"> -12664.53916648 </i>
    <i name="XCdc">   1241.40745087 </i>
    <i name="pawpsdc">  35528.96793699 </i>
    <i name="pawaedc"> -34918.23996479 </i>
    <i name="eentropy">     -0.00187682 </i>
    <i name="bandstr">  -3205.38706874 </i>
    <i name="atom">  40341.65184589 </i>
    <i name="e_fr_energy">   -206.62031758 </i>
    <i name="e_wo_entrp">   -206.61844076 </i>
    <i name="e_0_energy">   -206.61937917 </i>
   </energy>
  </scstep>
  <structure>
   <crystal>
    <varray name="basis" >
     <v>       8.15376541       0.00000000       0.00000000 </v>
     <v>       0.00000000       8.15376541       0.00000000 </v>
     <v>       0.00000000       0.00000000      12.86760988 </v>
    </varray>
    <i name="volume">    855.48876452 </i>
    <varray name="rec_basis" >
     <v>       0.12264272       0.00000000       0.00000000 </v>
     <v>       0.00000000       0.12264272       0.00000000 </v>
     <v>       0.00000000       0.00000000       0.07771451 </v>
    </varray>
   </crystal>
   <varray name="positions" >
    <v>       0.24687412       0.24687412       0.84924290 </v>
    <v>       0.75312588       0.24687412       0.84924290 </v>
    <v>       0.24687412       0.75312588       0.84924290 </v>
    <v>       0.75312588       0.75312588       0.84924290 </v>
    <v>       1.00000000       0.00000000       0.64415806 </v>
    <v>       0.50000000       1.00000000       0.65578434 </v>
    <v>       0.00000000       0.50000000       0.65578434 </v>
    <v>       0.50000000       0.50000000       0.66174203 </v>
    <v>       0.00000000       0.00000000       0.35584194 </v>
    <v>       0.50000000       0.00000000       0.34421566 </v>
    <v>       0.00000000       0.50000000       0.34421566 </v>
    <v>       0.50000000       0.50000000       0.33825797 </v>
    <v>       0.24687412       0.24687412       0.15075710 </v>
    <v>       0.75312588       0.24687412       0.15075710 </v>
    <v>       0.24687412       0.75312588       0.15075710 </v>
    <v>       0.75312588       0.75312588       0.15075710 </v>
    <v>       0.50000000       0.00000000       0.00000000 </v>
    <v>       0.00000000       0.50000000       0.00000000 </v>
    <v>       0.50000000       0.50000000       0.00000000 </v>
    <v>       0.23507656       0.23507656       0.50000000 </v>
    <v>       0.76492344       0.23507656       0.50000000 </v>
    <v>       0.23507656       0.76492344       0.50000000 </v>
    <v>       0.76492344       0.76492344       0.50000000 </v>
    <v>       0.00000000       0.25397134       0.75285488 </v>
    <v>       0.50000000       0.25254955       0.75113935 </v>
    <v>       0.00000000       0.74602866       0.75285488 </v>
    <v>       0.50000000       0.74745045       0.75113935 </v>
    <v>       0.25397134       1.00000000       0.75285488 </v>
    <v>       0.74602866       1.00000000       0.75285488 </v>
    <v>       0.25254955       0.50000000       0.75113935 </v>
    <v>       0.74745045       0.50000000       0.75113935 </v>
    <v>       0.25397134       0.00000000       0.24714512 </v>
    <v>       0.74602866       0.00000000       0.24714512 </v>
    <v>       0.25254955       0.50000000       0.24886065 </v>
    <v>       0.74745045       0.50000000       0.24886065 </v>
    <v>       0.00000000       0.25397134       0.24714512 </v>
    <v>       0.50000000       0.25254955       0.24886065 </v>
    <v>       0.00000000       0.74602866       0.24714512 </v>
    <v>       0.50000000       0.74745045       0.24886065 </v>
    <v>       0.00000000       0.00000000       0.00000000 </v>
   </varray>
  </structure>
  <varray name="forces" >
   <v>      -0.00000085      -0.00000085       0.00000010 </v>
   <v>       0.00000085      -0.00000085       0.00000010 </v>
   <v>      -0.00000085       0.00000085       0.00000010 </v>
   <v>       0.00000085       0.00000085       0.00000010 </v>
   <v>      -0.00000000       0.00000000       0.00000816 </v>
   <v>      -0.00000000       0.00000000       0.00000412 </v>
   <v>      -0.00000000      -0.00000000       0.00000412 </v>
   <v>       0.00000000       0.00000000      -0.00000234 </v>
   <v>       0.00000000       0.00000000      -0.00000816 </v>
   <v>      -0.00000000      -0.00000000      -0.00000412 </v>
   <v>       0.00000000       0.00000000      -0.00000412 </v>
   <v>      -0.00000000       0.00000000       0.00000234 </v>
   <v>      -0.00000085      -0.00000085      -0.00000010 </v>
   <v>       0.00000085      -0.00000085      -0.00000010 </v>
   <v>      -0.00000085       0.00000085      -0.00000010 </v>
   <v>       0.00000085       0.00000085      -0.00000010 </v>
   <v>      -0.00000000       0.00000000       0.00000000 </v>
   <v>      -0.00000000       0.00000000       0.00000000 </v>
   <v>       0.00000000       0.00000000       0.00000000 </v>
   <v>      -0.00000763      -0.00000763       0.00000000 </v>
   <v>       0.00000763      -0.00000763       0.00000000 </v>
   <v>      -0.00000763       0.00000763       0.00000000 </v>
   <v>       0.00000763       0.00000763       0.00000000 </v>
   <v>       0.00000000       0.00000504       0.00000527 </v>
   <v>      -0.00000000       0.00000273       0.00000191 </v>
   <v>       0.00000000      -0.00000504       0.00000527 </v>
   <v>       0.00000000      -0.00000273       0.00000191 </v>
   <v>       0.00000504       0.00000000       0.00000527 </v>
   <v>      -0.00000504       0.00000000       0.00000527 </v>
   <v>       0.00000273       0.00000000       0.00000191 </v>
   <v>      -0.00000273       0.00000000       0.00000191 </v>
   <v>       0.00000504       0.00000000      -0.00000527 </v>
   <v>      -0.00000504       0.00000000      -0.00000527 </v>
   <v>       0.00000273      -0.00000000      -0.00000191 </v>
   <v>      -0.00000273       0.00000000      -0.00000191 </v>
   <v>      -0.00000000       0.00000504      -0.00000527 </v>
   <v>      -0.00000000       0.00000273      -0.00000191 </v>
   <v>      -0.00000000      -0.00000504      -0.00000527 </v>
   <v>       0.00000000      -0.00000273      -0.00000191 </v>
   <v>      -0.00000000      -0.00000000       0.00000000 </v>
  </varray>
  <varray name="stress" >
   <v>     -73.23708805       0.00000000       0.00000000 </v>
   <v>       0.00000000     -73.23708805       0.00000000 </v>
   <v>      -0.00000000       0.00000000     -53.62376557 </v>
  </varray>
  <energy>
   <i name="e_fr_energy">   -206.62031758 </i>
   <i name="e_wo_entrp">   -206.61844076 </i>
   <i name="e_0_energy">   -206.61937917 </i>
  </energy>
  <time name="totalsc">  183.75  183.81</time>
 </calculation>
 <calculation>
  <scstep>
   <time name="dav">   31.34   31.36</time>
   <time name="total">   33.70   33.72</time>
   <energy>
    <i name="alphaZ">   1180.79420070 </i>
    <i name="ewald"> -27711.27230223 </i>
    <i name="hartreedc"> -12664.54046863 </i>
    <i name="XCdc">   1241.40745595 </i>
    <i name="pawpsdc">  35528.96797563 </i>
    <i name="pawaedc"> -34918.24000419 </i>
    <i name="eentropy">     -0.00187682 </i>
    <i name="bandstr">  -3205.38714388 </i>
    <i name="atom">  40341.65184589 </i>
    <i name="e_fr_energy">   -206.62031758 </i>
    <i name="e_wo_entrp">   -206.61844076 </i>
    <i name="e_0_energy">   -206.61937917 </i>
   </energy>
  </scstep>
  <scstep>
   <time name="dav">   26.40   26.40</time>
   <time name="total">   28.77   28.77</time>
   <energy>
    <i name="e_fr_energy">   -206.62031758 </i>
    <i name="e_wo_entrp">   -206.61844076 </i>
    <i name="e_0_energy">   -206.61937917 </i>
   </energy>
  </scstep>
  <scstep>
   <time name="dav">   26.40   26.41</time>
   <time name="total">   28.77   28.79</time>
   <energy>
    <i name="e_fr_energy">   -206.62031758 </i>
    <i name="e_wo_entrp">   -206.61844076 </i>
    <i name="e_0_energy">   -206.61937917 </i>
   </energy>
  </scstep>
  <scstep>
   <time name="dav">   26.42   26.42</time>
   <time name="total">   28.77   28.77</time>
   <energy>
    <i name="e_fr_energy">   -206.62031758 </i>
    <i name="e_wo_entrp">   -206.61844076 </i>
    <i name="e_0_energy">   -206.61937917 </i>
   </energy>
  </scstep>
  <scstep>
   <time name="dav">   26.25   26.27</time>
   <time name="total">   27.18   27.20</time>
   <energy>
    <i name="alphaZ">   1180.79420070 </i>
    <i name="ewald"> -27711.27230223 </i>
    <i name="hartreedc"> -12664.54050229 </i>
    <i name="XCdc">   1241.40745884 </i>
    <i name="pawpsdc">  35528.96871246 </i>
    <i name="pawaedc"> -34918.24074983 </i>
    <i name="eentropy">     -0.00187682 </i>
    <i name="bandstr">  -3205.38710432 </i>
    <i name="atom">  40341.65184589 </i>
    <i name="e_fr_energy">   -206.62031758 </i>
    <i name="e_wo_entrp">   -206.61844076 </i>
    <i name="e_0_energy">   -206.61937917 </i>
   </energy>
  </scstep>
  <structure>
   <crystal>
    <varray name="basis" >
     <v>       8.15376541       0.00000000       0.00000000 </v>
     <v>       0.00000000       8.15376541       0.00000000 </v>
     <v>       0.00000000       0.00000000      12.86760988 </v>
    </varray>
    <i name="volume">    855.48876452 </i>
    <varray name="rec_basis" >
     <v>       0.12264272       0.00000000       0.00000000 </v>
     <v>       0.00000000       0.12264272       0.00000000 </v>
     <v>       0.00000000       0.00000000       0.07771451 </v>
    </varray>
   </crystal>
   <varray name="positions" >
    <v>       0.24687409       0.24687409       0.84924289 </v>
    <v>       0.75312591       0.24687409       0.84924289 </v>
    <v>       0.24687409       0.75312591       0.84924289 </v>
    <v>       0.75312591       0.75312591       0.84924289 </v>
    <v>       0.00000000       1.00000000       0.64415804 </v>
    <v>       0.50000000       0.00000000       0.65578438 </v>
    <v>       1.00000000       0.50000000       0.65578438 </v>
    <v>       0.50000000       0.50000000       0.66174206 </v>
    <v>       0.00000000       1.00000000       0.35584196 </v>
    <v>       0.50000000       0.00000000       0.34421562 </v>
    <v>       0.00000000       0.50000000       0.34421562 </v>
    <v>       0.50000000       0.50000000       0.33825794 </v>
    <v>       0.24687409       0.24687409       0.15075711 </v>
    <v>       0.75312591       0.24687409       0.15075711 </v>
    <v>       0.24687409       0.75312591       0.15075711 </v>
    <v>       0.75312591       0.75312591       0.15075711 </v>
    <v>       0.50000000       0.00000000       1.00000000 </v>
    <v>       0.00000000       0.50000000       1.00000000 </v>
    <v>       0.50000000       0.50000000       1.00000000 </v>
    <v>       0.23507653       0.23507653       0.50000000 </v>
    <v>       0.76492347       0.23507653       0.50000000 </v>
    <v>       0.23507653       0.76492347       0.50000000 </v>
    <v>       0.76492347       0.76492347       0.50000000 </v>
    <v>       1.00000000       0.25397138       0.75285491 </v>
    <v>       0.50000000       0.25254956       0.75113935 </v>
    <v>       0.00000000       0.74602862       0.75285491 </v>
    <v>       0.50000000       0.74745044       0.75113935 </v>
    <v>       0.25397138       0.00000000       0.75285491 </v>
    <v>       0.74602862       0.00000000       0.75285491 </v>
    <v>       0.25254956       0.50000000       0.75113935 </v>
    <v>       0.74745044       0.50000000       0.75113935 </v>
    <v>       0.25397138       0.00000000       0.24714509 </v>
    <v>       0.74602862       1.00000000       0.24714509 </v>
    <v>       0.25254956       0.50000000       0.24886065 </v>
    <v>       0.74745044       0.50000000       0.24886065 </v>
    <v>       0.00000000       0.25397138       0.24714509 </v>
    <v>       0.50000000       0.25254956       0.24886065 </v>
    <v>       0.00000000       0.74602862       0.24714509 </v>
    <v>       0.50000000       0.74745044       0.24886065 </v>
    <v>       0.00000000       1.00000000       1.00000000 </v>
   </varray>
  </structure>
  <varray name="forces" >
   <v>       0.00000481       0.00000481       0.00000406 </v>
   <v>      -0.00000481       0.00000481       0.00000406 </v>
   <v>       0.00000481      -0.00000481       0.00000406 </v>
   <v>      -0.00000481      -0.00000481       0.00000406 </v>
   <v>      -0.00000000       0.00000000       0.00000707 </v>
   <v>       0.00000000      -0.00000000      -0.00000214 </v>
   <v>       0.00000000      -0.00000000      -0.00000214 </v>
   <v>       0.00000000      -0.00000000      -0.00000659 </v>
   <v>       0.00000000       0.00000000      -0.00000707 </v>
   <v>       0.00000000       0.00000000       0.00000214 </v>
[...]
       <r>    4.6637    1.0000 </r>
       <r>    4.7078    1.0000 </r>
       <r>    6.5355    0.0000 </r>
       <r>    6.5422    0.0000 </r>
       <r>    6.5573    0.0000 </r>
       <r>    6.5573    0.0000 </r>
       <r>    7.1581    0.0000 </r>
       <r>    7.1710    0.0000 </r>
       <r>    7.1985    0.0000 </r>
       <r>    7.1985    0.0000 </r>
       <r>    7.7690    0.0000 </r>
       <r>    7.7690    0.0000 </r>
       <r>    7.8025    0.0000 </r>
       <r>    7.9198    0.0000 </r>
       <r>    7.9326    0.0000 </r>
       <r>    7.9521    0.0000 </r>
       <r>    7.9521    0.0000 </r>
       <r>    7.9663    0.0000 </r>
       <r>    8.0714    0.0000 </r>
       <r>    8.1381    0.0000 </r>
       <r>    8.1425    0.0000 </r>
       <r>    8.1425    0.0000 </r>
       <r>    8.1444    0.0000 </r>
       <r>    8.1483    0.0000 </r>
       <r>    8.1641    0.0000 </r>
       <r>    8.1641    0.0000 </r>
       <r>    8.7005    0.0000 </r>
       <r>    8.7005    0.0000 </r>
       <r>    8.7085    0.0000 </r>
       <r>    8.7144    0.0000 </r>
       <r>    8.8331    0.0000 </r>
       <r>    8.8537    0.0000 </r>
       <r>    8.8537    0.0000 </r>
       <r>    8.9455    0.0000 </r>
       <r>    9.3707    0.0000 </r>
       <r>    9.3969    0.0000 </r>
       <r>    9.3969    0.0000 </r>
       <r>    9.5106    0.0000 </r>
       <r>    9.5214    0.0000 </r>
       <r>    9.5281    0.0000 </r>
       <r>    9.5281    0.0000 </r>
       <r>    9.5399    0.0000 </r>
      </set>
     </set>
    </set>
   </array>
  </eigenvalues>
  <separator name="orbital magnetization" >
   <v name="MAGDIPOLOUT">      0.00000000      0.00000000      0.00000000</v>
  </separator>
  <dos>
   <i name="efermi">      5.33950986 </i>
   <total>
    <array>
     <dimension dim="1">gridpoints</dimension>
     <dimension dim="2">spin</dimension>
     <field>energy</field>
     <field>total</field>
     <field>integrated</field>
     <set>
      <set comment="spin 1">
       <r>   -19.5511     0.0000     0.0000 </r>
       <r>   -19.4490     0.0000     0.0000 </r>
       <r>   -19.3469     0.0000     0.0000 </r>
       <r>   -19.2449     0.0000     0.0000 </r>
       <r>   -19.1428     0.0000     0.0000 </r>
       <r>   -19.0407     0.0000     0.0000 </r>
       <r>   -18.9387     0.0000     0.0000 </r>
       <r>   -18.8366     0.0000     0.0000 </r>
       <r>   -18.7345     0.0000     0.0000 </r>
       <r>   -18.6325     0.0000     0.0000 </r>
       <r>   -18.5304     0.0000     0.0000 </r>
       <r>   -18.4284     0.0000     0.0000 </r>
       <r>   -18.3263     0.0000     0.0000 </r>
       <r>   -18.2242     2.1301     0.2174 </r>
       <r>   -18.1222   125.6872    13.0455 </r>
       <r>   -18.0201   482.8368    62.3256 </r>
       <r>   -17.9180   834.4601   147.4937 </r>
       <r>   -17.8160   122.0942   159.9551 </r>
       <r>   -17.7139     0.4402   160.0000 </r>
       <r>   -17.6118     0.0000   160.0000 </r>
       <r>   -17.5098     0.0000   160.0000 </r>
       <r>   -17.4077     0.0000   160.0000 </r>
       <r>   -17.3057     0.0000   160.0000 </r>
       <r>   -17.2036     0.0000   160.0000 </r>
       <r>   -17.1015     0.0000   160.0000 </r>
       <r>   -16.9995     0.0000   160.0000 </r>
       <r>   -16.8974     0.0000   160.0000 </r>
       <r>   -16.7953     0.0000   160.0000 </r>
       <r>   -16.6933     0.0000   160.0000 </r>
       <r>   -16.5912     0.0000   160.0000 </r>
       <r>   -16.4891     0.0000   160.0000 </r>
       <r>   -16.3871     0.0000   160.0000 </r>
       <r>   -16.2850     0.0000   160.0000 </r>
       <r>   -16.1830     0.0000   160.0000 </r>
       <r>   -16.0809     0.0000   160.0000 </r>
       <r>   -15.9788     0.0000   160.0000 </r>
       <r>   -15.8768     0.0000   160.0000 </r>
       <r>   -15.7747     0.0000   160.0000 </r>
       <r>   -15.6726     0.0000   160.0000 </r>
       <r>   -15.5706     0.0000   160.0000 </r>
       <r>   -15.4685     0.0000   160.0000 </r>
       <r>   -15.3664     0.0000   160.0000 </r>
       <r>   -15.2644     0.0000   160.0000 </r>
       <r>   -15.1623     0.0000   160.0000 </r>
       <r>   -15.0603     0.0000   160.0000 </r>
       <r>   -14.9582     0.0000   160.0000 </r>
       <r>   -14.8561     0.0000   160.0000 </r>
       <r>   -14.7541     0.0000   160.0000 </r>
       <r>   -14.6520     0.0000   160.0000 </r>
       <r>   -14.5499     0.0000   160.0000 </r>
       <r>   -14.4479     0.0000   160.0000 </r>
       <r>   -14.3458     0.0000   160.0000 </r>
       <r>   -14.2437     0.0000   160.0000 </r>
       <r>   -14.1417     0.0000   160.0000 </r>
       <r>   -14.0396     0.0000   160.0000 </r>
       <r>   -13.9376     0.0777   160.0079 </r>
       <r>   -13.8355     3.0843   160.3227 </r>
       <r>   -13.7334    11.5902   161.5057 </r>
       <r>   -13.6314     9.1850   162.4431 </r>
       <r>   -13.5293    10.3753   163.5021 </r>
       <r>   -13.4272    10.9165   164.6162 </r>
       <r>   -13.3252     9.2906   165.5645 </r>
       <r>   -13.2231     6.7243   166.2508 </r>
       <r>   -13.1210    23.2475   168.6235 </r>
       <r>   -13.0190    13.2491   169.9758 </r>
       <r>   -12.9169     9.3872   170.9338 </r>
       <r>   -12.8149    11.3447   172.0917 </r>
       <r>   -12.7128    35.9642   175.7624 </r>
       <r>   -12.6107    19.9172   177.7952 </r>
       <r>   -12.5087    21.7292   180.0130 </r>
       <r>   -12.4066    42.1112   184.3110 </r>
       <r>   -12.3045    15.0997   185.8521 </r>
       <r>   -12.2025    13.2576   187.2052 </r>
       <r>   -12.1004    24.0700   189.6619 </r>
       <r>   -11.9983    12.3815   190.9256 </r>
       <r>   -11.8963    10.0747   191.9539 </r>
       <r>   -11.7942     0.4519   192.0000 </r>
       <r>   -11.6921     0.0001   192.0000 </r>
       <r>   -11.5901     0.0000   192.0000 </r>
       <r>   -11.4880     0.0000   192.0000 </r>
       <r>   -11.3860     0.0000   192.0000 </r>
       <r>   -11.2839     0.0000   192.0000 </r>
       <r>   -11.1818     0.0000   192.0000 </r>
       <r>   -11.0798     0.0000   192.0000 </r>
       <r>   -10.9777     0.0000   192.0000 </r>
       <r>   -10.8756     0.0000   192.0000 </r>
       <r>   -10.7736     0.0000   192.0000 </r>
       <r>   -10.6715     0.0000   192.0000 </r>
       <r>   -10.5694     0.0000   192.0000 </r>
       <r>   -10.4674     0.0000   192.0000 </r>
       <r>   -10.3653     0.0000   192.0000 </r>
       <r>   -10.2633     0.0000   192.0000 </r>
       <r>   -10.1612     0.0000   192.0000 </r>
       <r>   -10.0591     0.0000   192.0000 </r>
       <r>    -9.9571     0.0000   192.0000 </r>
       <r>    -9.8550     0.0000   192.0000 </r>
       <r>    -9.7529     0.0000   192.0000 </r>
       <r>    -9.6509     0.0000   192.0000 </r>
       <r>    -9.5488     0.0000   192.0000 </r>
       <r>    -9.4467     0.0000   192.0000 </r>
       <r>    -9.3447     0.0000   192.0000 </r>
       <r>    -9.2426     0.0000   192.0000 </r>
       <r>    -9.1406     0.0000   192.0000 </r>
       <r>    -9.0385     0.0000   192.0000 </r>
       <r>    -8.9364     0.0000   192.0000 </r>
       <r>    -8.8344     0.0000   192.0000 </r>
       <r>    -8.7323     0.0000   192.0000 </r>
       <r>    -8.6302     0.0000   192.0000 </r>
       <r>    -8.5282     0.0000   192.0000 </r>
       <r>    -8.4261     0.0000   192.0000 </r>
       <r>    -8.3240     0.0000   192.0000 </r>
       <r>    -8.2220     0.0000   192.0000 </r>
       <r>    -8.1199     0.0000   192.0000 </r>
       <r>    -8.0179     0.0000   192.0000 </r>
       <r>    -7.9158     0.0000   192.0000 </r>
       <r>    -7.8137     0.0000   192.0000 </r>
       <r>    -7.7117     0.0000   192.0000 </r>
       <r>    -7.6096     0.0000   192.0000 </r>
       <r>    -7.5075     0.0000   192.0000 </r>
       <r>    -7.4055     0.0000   192.0000 </r>
       <r>    -7.3034     0.0000   192.0000 </r>
       <r>    -7.2013     0.0000   192.0000 </r>
       <r>    -7.0993     0.0005   192.0001 </r>
       <r>    -6.9972     0.2256   192.0231 </r>
       <r>    -6.8952     2.8371   192.3126 </r>
       <r>    -6.7931     6.9694   193.0240 </r>
       <r>    -6.6910     6.7732   193.7153 </r>
       <r>    -6.5890     5.4866   194.2753 </r>
       <r>    -6.4869     8.7190   195.1651 </r>
       <r>    -6.3848     7.3124   195.9115 </r>
       <r>    -6.2828     9.9044   196.9224 </r>
       <r>    -6.1807    13.2628   198.2760 </r>
       <r>    -6.0786    18.1055   200.1239 </r>
       <r>    -5.9766    15.8071   201.7372 </r>
       <r>    -5.8745    18.8605   203.6622 </r>
       <r>    -5.7725    21.7384   205.8809 </r>
       <r>    -5.6704    25.9731   208.5318 </r>
       <r>    -5.5683    25.4445   211.1288 </r>
       <r>    -5.4663    35.2464   214.7262 </r>
       <r>    -5.3642    31.7441   217.9661 </r>
       <r>    -5.2621    41.9347   222.2461 </r>
       <r>    -5.1601    25.9011   224.8897 </r>
       <r>    -5.0580    11.1456   226.0272 </r>
       <r>    -4.9559    24.4919   228.5270 </r>
       <r>    -4.8539    16.4748   230.2084 </r>
       <r>    -4.7518     7.7322   230.9976 </r>
       <r>    -4.6498    14.4876   232.4763 </r>
       <r>    -4.5477    12.4761   233.7496 </r>
       <r>    -4.4456     9.4537   234.7145 </r>
       <r>    -4.3436     0.3517   234.7504 </r>
       <r>    -4.2415     1.6468   234.9185 </r>
       <r>    -4.1394    13.2343   236.2692 </r>
       <r>    -4.0374     9.2779   237.2162 </r>
       <r>    -3.9353     5.3420   237.7614 </r>
       <r>    -3.8332     2.5938   238.0261 </r>
       <r>    -3.7312     4.3490   238.4700 </r>
       <r>    -3.6291     6.9564   239.1800 </r>
       <r>    -3.5271     2.7578   239.4615 </r>
       <r>    -3.4250     3.6548   239.8345 </r>
       <r>    -3.3229     0.7910   239.9152 </r>
       <r>    -3.2209     0.7056   239.9872 </r>
       <r>    -3.1188     0.1249   240.0000 </r>
       <r>    -3.0167     0.0001   240.0000 </r>
       <r>    -2.9147     0.0000   240.0000 </r>
       <r>    -2.8126     0.0000   240.0000 </r>
       <r>    -2.7105     0.0000   240.0000 </r>
       <r>    -2.6085     0.0000   240.0000 </r>
       <r>    -2.5064     0.0000   240.0000 </r>
       <r>    -2.4044     0.0000   240.0000 </r>
       <r>    -2.3023     0.0000   240.0000 </r>
       <r>    -2.2002     0.0000   240.0000 </r>
       <r>    -2.0982     0.0000   240.0000 </r>
       <r>    -1.9961     0.0000   240.0000 </r>
       <r>    -1.8940     0.0000   240.0000 </r>
       <r>    -1.7920     0.0000   240.0000 </r>
       <r>    -1.6899     0.0000   240.0000 </r>
       <r>    -1.5878     0.0000   240.0000 </r>
       <r>    -1.4858     0.0000   240.0000 </r>
       <r>    -1.3837     0.0000   240.0000 </r>
       <r>    -1.2817     0.0000   240.0000 </r>
       <r>    -1.1796     0.0000   240.0000 </r>
       <r>    -1.0775     0.0000   240.0000 </r>
       <r>    -0.9755     0.0000   240.0000 </r>
       <r>    -0.8734     0.0000   240.0000 </r>
       <r>    -0.7713     0.0000   240.0000 </r>
       <r>    -0.6693     0.0000   240.0000 </r>
       <r>    -0.5672     0.0001   240.0000 </r>
       <r>    -0.4651     0.3443   240.0352 </r>
       <r>    -0.3631     5.8591   240.6332 </r>
       <r>    -0.2610    17.9551   242.4657 </r>
       <r>    -0.1590    31.9563   245.7273 </r>
       <r>    -0.0569    42.7365   250.0891 </r>
       <r>     0.0452    26.8093   252.8254 </r>
       <r>     0.1472    18.9681   254.7614 </r>
       <r>     0.2493    19.2494   256.7260 </r>
       <r>     0.3514    21.5754   258.9281 </r>
       <r>     0.4534    20.1325   260.9829 </r>
       <r>     0.5555    21.7047   263.1982 </r>
       <r>     0.6576    24.4806   265.6967 </r>
       <r>     0.7596    22.9764   268.0418 </r>
       <r>     0.8617    16.6035   269.7364 </r>
       <r>     0.9637    12.3180   270.9936 </r>
       <r>     1.0658    22.2944   273.2691 </r>
       <r>     1.1679    37.8409   277.1313 </r>
       <r>     1.2699    22.9725   279.4759 </r>
       <r>     1.3720    17.5909   281.2713 </r>
       <r>     1.4741    24.6758   283.7898 </r>
       <r>     1.5761    43.8064   288.2609 </r>
       <r>     1.6782    41.7097   292.5179 </r>
       <r>     1.7803    44.4923   297.0590 </r>
       <r>     1.8823    28.3511   299.9526 </r>
       <r>     1.9844    25.9882   302.6050 </r>
       <r>     2.0864    25.8008   305.2383 </r>
       <r>     2.1885    29.9848   308.2987 </r>
       <r>     2.2906    16.3172   309.9641 </r>
       <r>     2.3926    23.9089   312.4043 </r>
       <r>     2.4947    42.1752   316.7089 </r>
       <r>     2.5968    39.3318   320.7232 </r>
       <r>     2.6988    22.7441   323.0446 </r>
       <r>     2.8009    40.1738   327.1449 </r>
       <r>     2.9030    33.3785   330.5516 </r>
       <r>     3.0050    20.3445   332.6280 </r>
       <r>     3.1071    16.8544   334.3483 </r>
       <r>     3.2091    17.8582   336.1709 </r>
       <r>     3.3112    14.9593   337.6977 </r>
       <r>     3.4133     5.4756   338.2566 </r>
       <r>     3.5153    13.8814   339.6734 </r>
       <r>     3.6174    16.9836   341.4068 </r>
       <r>     3.7195    13.8376   342.8191 </r>
       <r>     3.8215    16.3758   344.4905 </r>
       <r>     3.9236    16.0697   346.1306 </r>
       <r>     4.0257    33.2652   349.5258 </r>
       <r>     4.1277    45.4468   354.1642 </r>
       <r>     4.2298    53.4924   359.6239 </r>
       <r>     4.3318    50.9751   364.8266 </r>
       <r>     4.4339    48.8055   369.8079 </r>
       <r>     4.5360    33.8163   373.2593 </r>
       <r>     4.6380    21.2927   375.4325 </r>
       <r>     4.7401    19.6887   377.4420 </r>
       <r>     4.8422    29.1137   380.4134 </r>
       <r>     4.9442    15.9577   382.0421 </r>
       <r>     5.0463     2.7699   382.3249 </r>
       <r>     5.1484     6.5466   382.9930 </r>
       <r>     5.2504     7.6134   383.7701 </r>
       <r>     5.3525     2.4204   384.0171 </r>
       <r>     5.4545     0.7989   384.0986 </r>
       <r>     5.5566     0.2591   384.1251 </r>
       <r>     5.6587     0.4412   384.1701 </r>
       <r>     5.7607     0.7681   384.2485 </r>
       <r>     5.8628     0.0341   384.2520 </r>
       <r>     5.9649     0.6496   384.3183 </r>
       <r>     6.0669     0.7519   384.3950 </r>
       <r>     6.1690     3.2779   384.7296 </r>
       <r>     6.2711     3.4390   385.0806 </r>
       <r>     6.3731     5.4137   385.6331 </r>
       <r>     6.4752     4.5183   386.0943 </r>
       <r>     6.5772     6.6766   386.7757 </r>
       <r>     6.6793    12.9763   388.1001 </r>
       <r>     6.7814     9.2369   389.0429 </r>
       <r>     6.8834    13.1644   390.3865 </r>
       <r>     6.9855     5.1283   390.9099 </r>
       <r>     7.0876    14.3901   392.3786 </r>
       <r>     7.1896    28.8647   395.3246 </r>
       <r>     7.2917    24.7504   397.8507 </r>
       <r>     7.3938    26.7844   400.5845 </r>
       <r>     7.4958    27.0009   403.3403 </r>
       <r>     7.5979    28.2804   406.2267 </r>
       <r>     7.7000    21.2046   408.3909 </r>
       <r>     7.8020    13.1763   409.7357 </r>
       <r>     7.9041    24.3713   412.2231 </r>
       <r>     8.0061    23.0152   414.5722 </r>
       <r>     8.1082    26.5868   417.2857 </r>
       <r>     8.2103    36.4275   421.0036 </r>
       <r>     8.3123    32.3299   424.3033 </r>
       <r>     8.4144    24.5510   426.8091 </r>
       <r>     8.5165    29.2110   429.7905 </r>
       <r>     8.6185    31.3287   432.9880 </r>
       <r>     8.7206    35.6609   436.6277 </r>
       <r>     8.8227    24.4815   439.1264 </r>
       <r>     8.9247    26.1499   441.7953 </r>
       <r>     9.0268    21.8130   444.0217 </r>
       <r>     9.1288    16.0989   445.6648 </r>
       <r>     9.2309    30.0043   448.7271 </r>
       <r>     9.3330    43.3760   453.1542 </r>
       <r>     9.4350    45.6771   457.8162 </r>
       <r>     9.5371    36.0231   461.4929 </r>
       <r>     9.6392    18.1067   463.3409 </r>
       <r>     9.7412     6.3357   463.9875 </r>
       <r>     9.8433     0.1220   464.0000 </r>
       <r>     9.9454     0.0000   464.0000 </r>
       <r>    10.0474     0.0000   464.0000 </r>
       <r>    10.1495     0.0000   464.0000 </r>
       <r>    10.2515     0.0000   464.0000 </r>
       <r>    10.3536     0.0000   464.0000 </r>
       <r>    10.4557     0.0000   464.0000 </r>
       <r>    10.5577     0.0000   464.0000 </r>
       <r>    10.6598     0.0000   464.0000 </r>
       <r>    10.7619     0.0000   464.0000 </r>
       <r>    10.8639     0.0000   464.0000 </r>
       <r>    10.9660     0.0000   464.0000 </r>
       <r>    11.0681     0.0000   464.0000 </r>
      </set>
     </set>
    </array>
   </total>
  </dos>
 </calculation>
 <structure name="finalpos" >
  <crystal>
   <varray name="basis" >
    <v>       8.15376541       0.00000000       0.00000000 </v>
    <v>       0.00000000       8.15376541       0.00000000 </v>
    <v>       0.00000000       0.00000000      12.86760988 </v>
   </varray>
   <i name="volume">    855.48876452 </i>
   <varray name="rec_basis" >
    <v>       0.12264272       0.00000000       0.00000000 </v>
    <v>       0.00000000       0.12264272       0.00000000 </v>
    <v>       0.00000000       0.00000000       0.07771451 </v>
   </varray>
  </crystal>
  <varray name="positions" >
   <v>       0.24687410       0.24687410       0.84924300 </v>
   <v>       0.75312590       0.24687410       0.84924300 </v>
   <v>       0.24687410       0.75312590       0.84924300 </v>
   <v>       0.75312590       0.75312590       0.84924300 </v>
   <v>       0.00000000       0.00000000       0.64415805 </v>
   <v>       0.50000000       0.00000000       0.65578454 </v>
   <v>       0.00000000       0.50000000       0.65578454 </v>
   <v>       0.50000000       0.50000000       0.66174213 </v>
   <v>       0.00000000       0.00000000       0.35584195 </v>
   <v>       0.50000000       0.00000000       0.34421546 </v>
   <v>       0.00000000       0.50000000       0.34421546 </v>
   <v>       0.50000000       0.50000000       0.33825787 </v>
   <v>       0.24687410       0.24687410       0.15075700 </v>
   <v>       0.75312590       0.24687410       0.15075700 </v>
   <v>       0.24687410       0.75312590       0.15075700 </v>
   <v>       0.75312590       0.75312590       0.15075700 </v>
   <v>       0.50000000       0.00000000       1.00000000 </v>
   <v>       0.00000000       0.50000000       1.00000000 </v>
   <v>       0.50000000       0.50000000       1.00000000 </v>
   <v>       0.23507586       0.23507586       0.50000000 </v>
   <v>       0.76492414       0.23507586       0.50000000 </v>
   <v>       0.23507586       0.76492414       0.50000000 </v>
   <v>       0.76492414       0.76492414       0.50000000 </v>
   <v>       1.00000000       0.25397176       0.75285522 </v>
   <v>       0.50000000       0.25254975       0.75113941 </v>
   <v>       0.00000000       0.74602824       0.75285522 </v>
   <v>       0.50000000       0.74745025       0.75113941 </v>
   <v>       0.25397176       0.00000000       0.75285522 </v>
   <v>       0.74602824       0.00000000       0.75285522 </v>
   <v>       0.25254975       0.50000000       0.75113941 </v>
   <v>       0.74745025       0.50000000       0.75113941 </v>
   <v>       0.25397176       0.00000000       0.24714478 </v>
   <v>       0.74602824       0.00000000       0.24714478 </v>
   <v>       0.25254975       0.50000000       0.24886059 </v>
   <v>       0.74745025       0.50000000       0.24886059 </v>
   <v>       0.00000000       0.25397176       0.24714478 </v>
   <v>       0.50000000       0.25254975       0.24886059 </v>
   <v>       0.00000000       0.74602824       0.24714478 </v>
   <v>       0.50000000       0.74745025       0.24886059 </v>
   <v>       0.00000000       0.00000000       1.00000000 </v>
  </varray>
 </structure>
</modeling>
