unknown system                          
           1
     8.153765    0.000000    0.000000
     0.000000    8.153765    0.000000
     0.000000    0.000000   12.867610
   Bi   Se   O    S 
    16     7    16     1
Direct configuration=     1
   0.24687416  0.24687416  0.84924287
   0.75312584  0.24687416  0.84924287
   0.24687416  0.75312584  0.84924287
   0.75312584  0.75312584  0.84924287
   0.00000000  0.00000000  0.64415816
   0.50000000  0.00000000  0.65578428
   0.00000000  0.50000000  0.65578428
   0.50000000  0.50000000  0.66174195
   0.00000000  0.00000000  0.35584184
   0.50000000  0.00000000  0.34421572
   0.00000000  0.50000000  0.34421572
   0.50000000  0.50000000  0.33825805
   0.24687416  0.24687416  0.15075713
   0.75312584  0.24687416  0.15075713
   0.24687416  0.75312584  0.15075713
   0.75312584  0.75312584  0.15075713
   0.50000000  0.00000000  0.00000000
   0.00000000  0.50000000  0.00000000
   0.50000000  0.50000000  0.00000000
   0.23507661  0.23507661  0.50000000
   0.76492339  0.23507661  0.50000000
   0.23507661  0.76492339  0.50000000
   0.76492339  0.76492339  0.50000000
   0.00000000  0.25397127  0.75285482
   0.50000000  0.25254954  0.75113934
   0.00000000  0.74602873  0.75285482
   0.50000000  0.74745046  0.75113934
   0.25397127  0.00000000  0.75285482
   0.74602873  0.00000000  0.75285482
   0.25254954  0.50000000  0.75113934
   0.74745046  0.50000000  0.75113934
   0.25397127  0.00000000  0.24714518
   0.74602873  0.00000000  0.24714518
   0.25254954  0.50000000  0.24886066
   0.74745046  0.50000000  0.24886066
   0.00000000  0.25397127  0.24714518
   0.50000000  0.25254954  0.24886066
   0.00000000  0.74602873  0.24714518
   0.50000000  0.74745046  0.24886066
   0.00000000  0.00000000  0.00000000
Direct configuration=     2
   0.24687415  0.24687415  0.84924290
   0.75312585  0.24687415  0.84924290
   0.24687415  0.75312585  0.84924290
   0.75312585  0.75312585  0.84924290
   0.00000000  1.00000000  0.64415808
   0.50000000  0.00000000  0.65578431
   1.00000000  0.50000000  0.65578431
   0.50000000  0.50000000  0.66174201
   1.00000000  1.00000000  0.35584192
   0.50000000  1.00000000  0.34421569
   0.00000000  0.50000000  0.34421569
   0.50000000  0.50000000  0.33825799
   0.24687415  0.24687415  0.15075710
   0.75312585  0.24687415  0.15075710
   0.24687415  0.75312585  0.15075710
   0.75312585  0.75312585  0.15075710
   0.50000000  0.00000000  1.00000000
   1.00000000  0.50000000  1.00000000
   0.50000000  0.50000000  1.00000000
   0.23507659  0.23507659  0.50000000
   0.76492341  0.23507659  0.50000000
   0.23507659  0.76492341  0.50000000
   0.76492341  0.76492341  0.50000000
   1.00000000  0.25397130  0.75285485
   0.50000000  0.25254954  0.75113934
   0.00000000  0.74602870  0.75285485
   0.50000000  0.74745046  0.75113934
   0.25397130  0.00000000  0.75285485
   0.74602870  0.00000000  0.75285485
   0.25254954  0.50000000  0.75113934
   0.74745046  0.50000000  0.75113934
   0.25397130  1.00000000  0.24714515
   0.74602870  0.00000000  0.24714515
   0.25254954  0.50000000  0.24886066
   0.74745046  0.50000000  0.24886066
   1.00000000  0.25397130  0.24714515
   0.50000000  0.25254954  0.24886066
   0.00000000  0.74602870  0.24714515
   0.50000000  0.74745046  0.24886066
   0.00000000  1.00000000  1.00000000
Direct configuration=     3
   0.24687415  0.24687415  0.84924289
   0.75312585  0.24687415  0.84924289
   0.24687415  0.75312585  0.84924289
   0.75312585  0.75312585  0.84924289
   0.00000000  0.00000000  0.64415810
   0.50000000  0.00000000  0.65578430
   0.00000000  0.50000000  0.65578430
   0.50000000  0.50000000  0.66174199
   0.00000000  0.00000000  0.35584190
   0.50000000  0.00000000  0.34421570
   0.00000000  0.50000000  0.34421570
   0.50000000  0.50000000  0.33825801
   0.24687415  0.24687415  0.15075711
   0.75312585  0.24687415  0.15075711
   0.24687415  0.75312585  0.15075711
   0.75312585  0.75312585  0.15075711
   0.50000000  0.00000000  0.00000000
   0.00000000  0.50000000  0.00000000
   0.50000000  0.50000000  0.00000000
   0.23507659  0.23507659  0.50000000
   0.76492341  0.23507659  0.50000000
   0.23507659  0.76492341  0.50000000
   0.76492341  0.76492341  0.50000000
   0.00000000  0.25397130  0.75285484
   0.50000000  0.25254954  0.75113934
   0.00000000  0.74602870  0.75285484
   0.50000000  0.74745046  0.75113934
   0.25397130  0.00000000  0.75285484
   0.74602870  0.00000000  0.75285484
   0.25254954  0.50000000  0.75113934
   0.74745046  0.50000000  0.75113934
   0.25397130  0.00000000  0.24714516
   0.74602870  0.00000000  0.24714516
   0.25254954  0.50000000  0.24886066
   0.74745046  0.50000000  0.24886066
   0.00000000  0.25397130  0.24714516
   0.50000000  0.25254954  0.24886066
   0.00000000  0.74602870  0.24714516
   0.50000000  0.74745046  0.24886066
   0.00000000  0.00000000  0.00000000
Direct configuration=     4
   0.24687415  0.24687415  0.84924290
   0.75312585  0.24687415  0.84924290
   0.24687415  0.75312585  0.84924290
   0.75312585  0.75312585  0.84924290
   0.00000000  1.00000000  0.64415808
   0.50000000  0.00000000  0.65578431
   1.00000000  0.50000000  0.65578431
   0.50000000  0.50000000  0.66174201
   1.00000000  1.00000000  0.35584192
   0.50000000  1.00000000  0.34421569
   0.00000000  0.50000000  0.34421569
   0.50000000  0.50000000  0.33825799
   0.24687415  0.24687415  0.15075710
   0.75312585  0.24687415  0.15075710
   0.24687415  0.75312585  0.15075710
   0.75312585  0.75312585  0.15075710
   0.50000000  0.00000000  1.00000000
   1.00000000  0.50000000  1.00000000
   0.50000000  0.50000000  1.00000000
   0.23507659  0.23507659  0.50000000
   0.76492341  0.23507659  0.50000000
   0.23507659  0.76492341  0.50000000
   0.76492341  0.76492341  0.50000000
   1.00000000  0.25397130  0.75285485
   0.50000000  0.25254954  0.75113934
   0.00000000  0.74602870  0.75285485
   0.50000000  0.74745046  0.75113934
   0.25397130  0.00000000  0.75285485
   0.74602870  0.00000000  0.75285485
   0.25254954  0.50000000  0.75113934
   0.74745046  0.50000000  0.75113934
   0.25397130  1.00000000  0.24714515
   0.74602870  0.00000000  0.24714515
   0.25254954  0.50000000  0.24886066
   0.74745046  0.50000000  0.24886066
   1.00000000  0.25397130  0.24714515
   0.50000000  0.25254954  0.24886066
   0.00000000  0.74602870  0.24714515
   0.50000000  0.74745046  0.24886066
   0.00000000  1.00000000  1.00000000
Direct configuration=     5
   0.24687412  0.24687412  0.84924290
   0.75312588  0.24687412  0.84924290
   0.24687412  0.75312588  0.84924290
   0.75312588  0.75312588  0.84924290
   1.00000000  0.00000000  0.64415806
   0.50000000  1.00000000  0.65578434
   0.00000000  0.50000000  0.65578434
   0.50000000  0.50000000  0.66174203
   0.00000000  0.00000000  0.35584194
   0.50000000  0.00000000  0.34421566
   0.00000000  0.50000000  0.34421566
   0.50000000  0.50000000  0.33825797
   0.24687412  0.24687412  0.15075710
   0.75312588  0.24687412  0.15075710
   0.24687412  0.75312588  0.15075710
   0.75312588  0.75312588  0.15075710
   0.50000000  0.00000000  0.00000000
   0.00000000  0.50000000  0.00000000
   0.50000000  0.50000000  0.00000000
   0.23507656  0.23507656  0.50000000
   0.76492344  0.23507656  0.50000000
   0.23507656  0.76492344  0.50000000
   0.76492344  0.76492344  0.50000000
   0.00000000  0.25397134  0.75285488
   0.50000000  0.25254955  0.75113935
   0.00000000  0.74602866  0.75285488
   0.50000000  0.74745045  0.75113935
   0.25397134  1.00000000  0.75285488
   0.74602866  1.00000000  0.75285488
   0.25254955  0.50000000  0.75113935
   0.74745045  0.50000000  0.75113935
   0.25397134  0.00000000  0.24714512
   0.74602866  0.00000000  0.24714512
   0.25254955  0.50000000  0.24886065
   0.74745045  0.50000000  0.24886065
   0.00000000  0.25397134  0.24714512
   0.50000000  0.25254955  0.24886065
   0.00000000  0.74602866  0.24714512
   0.50000000  0.74745045  0.24886065
   0.00000000  0.00000000  0.00000000
Direct configuration=     6
   0.24687409  0.24687409  0.84924289
   0.75312591  0.24687409  0.84924289
   0.24687409  0.75312591  0.84924289
   0.75312591  0.75312591  0.84924289
   0.00000000  1.00000000  0.64415804
   0.50000000  0.00000000  0.65578438
   1.00000000  0.50000000  0.65578438
   0.50000000  0.50000000  0.66174206
   0.00000000  1.00000000  0.35584196
   0.50000000  0.00000000  0.34421562
   0.00000000  0.50000000  0.34421562
   0.50000000  0.50000000  0.33825794
   0.24687409  0.24687409  0.15075711
   0.75312591  0.24687409  0.15075711
   0.24687409  0.75312591  0.15075711
   0.75312591  0.75312591  0.15075711
   0.50000000  0.00000000  1.00000000
   0.00000000  0.50000000  1.00000000
   0.50000000  0.50000000  1.00000000
   0.23507653  0.23507653  0.50000000
   0.76492347  0.23507653  0.50000000
   0.23507653  0.76492347  0.50000000
   0.76492347  0.76492347  0.50000000
   1.00000000  0.25397138  0.75285491
   0.50000000  0.25254956  0.75113935
   0.00000000  0.74602862  0.75285491
   0.50000000  0.74745044  0.75113935
   0.25397138  0.00000000  0.75285491
   0.74602862  0.00000000  0.75285491
   0.25254956  0.50000000  0.75113935
   0.74745044  0.50000000  0.75113935
   0.25397138  0.00000000  0.24714509
   0.74602862  1.00000000  0.24714509
   0.25254956  0.50000000  0.24886065
   0.74745044  0.50000000  0.24886065
   0.00000000  0.25397138  0.24714509
   0.50000000  0.25254956  0.24886065
   0.00000000  0.74602862  0.24714509
   0.50000000  0.74745044  0.24886065
   0.00000000  1.00000000  1.00000000
Direct configuration=     7
   0.24687409  0.24687409  0.84924290
   0.75312591  0.24687409  0.84924290
   0.24687409  0.75312591  0.84924290
   0.75312591  0.75312591  0.84924290
   1.00000000  0.00000000  0.64415805
   0.50000000  1.00000000  0.65578439
   0.00000000  0.50000000  0.65578439
   0.50000000  0.50000000  0.66174205
   0.00000000  0.00000000  0.35584195
   0.50000000  0.00000000  0.34421561
   0.00000000  0.50000000  0.34421561
   0.50000000  0.50000000  0.33825795
   0.24687409  0.24687409  0.15075710
   0.75312591  0.24687409  0.15075710
   0.24687409  0.75312591  0.15075710
   0.75312591  0.75312591  0.15075710
   0.50000000  0.00000000  0.00000000
   0.00000000  0.50000000  0.00000000
   0.50000000  0.50000000  0.00000000
   0.23507649  0.23507649  0.50000000
   0.76492351  0.23507649  0.50000000
   0.23507649  0.76492351  0.50000000
   0.76492351  0.76492351  0.50000000
   0.00000000  0.25397140  0.75285494
   0.50000000  0.25254957  0.75113936
   1.00000000  0.74602860  0.75285494
   0.50000000  0.74745043  0.75113936
   0.25397140  1.00000000  0.75285494
   0.74602860  0.00000000  0.75285494
   0.25254957  0.50000000  0.75113936
   0.74745043  0.50000000  0.75113936
   0.25397140  0.00000000  0.24714506
   0.74602860  0.00000000  0.24714506
   0.25254957  0.50000000  0.24886064
   0.74745043  0.50000000  0.24886064
   0.00000000  0.25397140  0.24714506
   0.50000000  0.25254957  0.24886064
   0.00000000  0.74602860  0.24714506
   0.50000000  0.74745043  0.24886064
   0.00000000  0.00000000  0.00000000
Direct configuration=     8
   0.24687409  0.24687409  0.84924291
   0.75312591  0.24687409  0.84924291
   0.24687409  0.75312591  0.84924291
   0.75312591  0.75312591  0.84924291
   0.00000000  0.00000000  0.64415806
   0.50000000  0.00000000  0.65578440
   0.00000000  0.50000000  0.65578440
   0.50000000  0.50000000  0.66174205
   0.00000000  0.00000000  0.35584194
   0.50000000  0.00000000  0.34421560
   0.00000000  0.50000000  0.34421560
   0.50000000  0.50000000  0.33825795
   0.24687409  0.24687409  0.15075709
   0.75312591  0.24687409  0.15075709
   0.24687409  0.75312591  0.15075709
   0.75312591  0.75312591  0.15075709
   0.50000000  0.00000000  1.00000000
   0.00000000  0.50000000  1.00000000
   0.50000000  0.50000000  1.00000000
   0.23507644  0.23507644  0.50000000
   0.76492356  0.23507644  0.50000000
   0.23507644  0.76492356  0.50000000
   0.76492356  0.76492356  0.50000000
   1.00000000  0.25397143  0.75285496
   0.50000000  0.25254958  0.75113937
   0.00000000  0.74602857  0.75285496
   0.50000000  0.74745042  0.75113937
   0.25397143  0.00000000  0.75285496
   0.74602857  0.00000000  0.75285496
   0.25254958  0.50000000  0.75113937
   0.74745042  0.50000000  0.75113937
   0.25397143  0.00000000  0.24714504
   0.74602857  1.00000000  0.24714504
   0.25254958  0.50000000  0.24886063
   0.74745042  0.50000000  0.24886063
   0.00000000  0.25397143  0.24714504
   0.50000000  0.25254958  0.24886063
   0.00000000  0.74602857  0.24714504
   0.50000000  0.74745042  0.24886063
   0.00000000  0.00000000  1.00000000
Direct configuration=     9
   0.24687410  0.24687410  0.84924293
   0.75312590  0.24687410  0.84924293
   0.24687410  0.75312590  0.84924293
   0.75312590  0.75312590  0.84924293
   1.00000000  0.00000000  0.64415807
   0.50000000  1.00000000  0.65578442
   0.00000000  0.50000000  0.65578442
   0.50000000  0.50000000  0.66174204
   0.00000000  0.00000000  0.35584193
   0.50000000  0.00000000  0.34421558
   1.00000000  0.50000000  0.34421558
   0.50000000  0.50000000  0.33825796
   0.24687410  0.24687410  0.15075707
   0.75312590  0.24687410  0.15075707
   0.24687410  0.75312590  0.15075707
   0.75312590  0.75312590  0.15075707
   0.50000000  0.00000000  0.00000000
   0.00000000  0.50000000  0.00000000
   0.50000000  0.50000000  0.00000000
   0.23507634  0.23507634  0.50000000
   0.76492366  0.23507634  0.50000000
   0.23507634  0.76492366  0.50000000
   0.76492366  0.76492366  0.50000000
   0.00000000  0.25397150  0.75285501
   0.50000000  0.25254961  0.75113938
   1.00000000  0.74602850  0.75285501
   0.50000000  0.74745039  0.75113938
   0.25397150  1.00000000  0.75285501
   0.74602850  0.00000000  0.75285501
   0.25254961  0.50000000  0.75113938
   0.74745039  0.50000000  0.75113938
   0.25397150  0.00000000  0.24714499
   0.74602850  0.00000000  0.24714499
   0.25254961  0.50000000  0.24886062
   0.74745039  0.50000000  0.24886062
   0.00000000  0.25397150  0.24714499
   0.50000000  0.25254961  0.24886062
   0.00000000  0.74602850  0.24714499
   0.50000000  0.74745039  0.24886062
   0.00000000  0.00000000  0.00000000
Direct configuration=    10
   0.24687411  0.24687411  0.84924297
   0.75312589  0.24687411  0.84924297
   0.24687411  0.75312589  0.84924297
   0.75312589  0.75312589  0.84924297
   0.00000000  0.00000000  0.64415811
   0.50000000  0.00000000  0.65578447
   0.00000000  0.50000000  0.65578447
   0.50000000  0.50000000  0.66174203
   0.00000000  0.00000000  0.35584189
   0.50000000  0.00000000  0.34421553
   0.00000000  0.50000000  0.34421553
   0.50000000  0.50000000  0.33825797
   0.24687411  0.24687411  0.15075703
   0.75312589  0.24687411  0.15075703
   0.24687411  0.75312589  0.15075703
   0.75312589  0.75312589  0.15075703
   0.50000000  0.00000000  1.00000000
   0.00000000  0.50000000  1.00000000
   0.50000000  0.50000000  1.00000000
   0.23507614  0.23507614  0.50000000
   0.76492386  0.23507614  0.50000000
   0.23507614  0.76492386  0.50000000
   0.76492386  0.76492386  0.50000000
   1.00000000  0.25397162  0.75285511
   0.50000000  0.25254966  0.75113941
   0.00000000  0.74602838  0.75285511
   0.50000000  0.74745034  0.75113941
   0.25397162  0.00000000  0.75285511
   0.74602838  0.00000000  0.75285511
   0.25254966  0.50000000  0.75113941
   0.74745034  0.50000000  0.75113941
   0.25397162  0.00000000  0.24714489
   0.74602838  1.00000000  0.24714489
   0.25254966  0.50000000  0.24886059
   0.74745034  0.50000000  0.24886059
   0.00000000  0.25397162  0.24714489
   0.50000000  0.25254966  0.24886059
   0.00000000  0.74602838  0.24714489
   0.50000000  0.74745034  0.24886059
   0.00000000  0.00000000  1.00000000
Direct configuration=    11
   0.24687411  0.24687411  0.84924297
   0.75312589  0.24687411  0.84924297
   0.24687411  0.75312589  0.84924297
   0.75312589  0.75312589  0.84924297
   1.00000000  0.00000000  0.64415810
   0.50000000  1.00000000  0.65578448
   0.00000000  0.50000000  0.65578448
   0.50000000  0.50000000  0.66174205
   0.00000000  0.00000000  0.35584190
   0.50000000  0.00000000  0.34421552
   1.00000000  0.50000000  0.34421552
   0.50000000  0.50000000  0.33825795
   0.24687411  0.24687411  0.15075703
   0.75312589  0.24687411  0.15075703
   0.24687411  0.75312589  0.15075703
   0.75312589  0.75312589  0.15075703
   0.50000000  0.00000000  0.00000000
   0.00000000  0.50000000  0.00000000
   0.50000000  0.50000000  0.00000000
   0.23507609  0.23507609  0.50000000
   0.76492391  0.23507609  0.50000000
   0.23507609  0.76492391  0.50000000
   0.76492391  0.76492391  0.50000000
   0.00000000  0.25397165  0.75285513
   0.50000000  0.25254968  0.75113941
   1.00000000  0.74602835  0.75285513
   0.50000000  0.74745032  0.75113941
   0.25397165  1.00000000  0.75285513
   0.74602835  0.00000000  0.75285513
   0.25254968  0.50000000  0.75113941
   0.74745032  0.50000000  0.75113941
   0.25397165  0.00000000  0.24714487
   0.74602835  0.00000000  0.24714487
   0.25254968  0.50000000  0.24886059
   0.74745032  0.50000000  0.24886059
   0.00000000  0.25397165  0.24714487
   0.50000000  0.25254968  0.24886059
   0.00000000  0.74602835  0.24714487
   0.50000000  0.74745032  0.24886059
   0.00000000  0.00000000  0.00000000
Direct configuration=    12
   0.24687411  0.24687411  0.84924297
   0.75312589  0.24687411  0.84924297
   0.24687411  0.75312589  0.84924297
   0.75312589  0.75312589  0.84924297
   0.00000000  0.00000000  0.64415810
   0.50000000  0.00000000  0.65578448
   0.00000000  0.50000000  0.65578448
   0.50000000  0.50000000  0.66174205
   0.00000000  0.00000000  0.35584190
   0.50000000  0.00000000  0.34421552
   0.00000000  0.50000000  0.34421552
   0.50000000  0.50000000  0.33825795
   0.24687411  0.24687411  0.15075703
   0.75312589  0.24687411  0.15075703
   0.24687411  0.75312589  0.15075703
   0.75312589  0.75312589  0.15075703
   0.50000000  0.00000000  1.00000000
   0.00000000  0.50000000  1.00000000
   0.50000000  0.50000000  1.00000000
   0.23507609  0.23507609  0.50000000
   0.76492391  0.23507609  0.50000000
   0.23507609  0.76492391  0.50000000
   0.76492391  0.76492391  0.50000000
   1.00000000  0.25397165  0.75285513
   0.50000000  0.25254968  0.75113941
   0.00000000  0.74602835  0.75285513
   0.50000000  0.74745032  0.75113941
   0.25397165  0.00000000  0.75285513
   0.74602835  0.00000000  0.75285513
   0.25254968  0.50000000  0.75113941
   0.74745032  0.50000000  0.75113941
   0.25397165  0.00000000  0.24714487
   0.74602835  0.00000000  0.24714487
   0.25254968  0.50000000  0.24886059
   0.74745032  0.50000000  0.24886059
   0.00000000  0.25397165  0.24714487
   0.50000000  0.25254968  0.24886059
   0.00000000  0.74602835  0.24714487
   0.50000000  0.74745032  0.24886059
   0.00000000  0.00000000  1.00000000
Direct configuration=    13
   0.24687411  0.24687411  0.84924297
   0.75312589  0.24687411  0.84924297
   0.24687411  0.75312589  0.84924297
   0.75312589  0.75312589  0.84924297
   1.00000000  0.00000000  0.64415810
   0.50000000  1.00000000  0.65578449
   0.00000000  0.50000000  0.65578449
   0.50000000  0.50000000  0.66174205
   0.00000000  0.00000000  0.35584190
   0.50000000  0.00000000  0.34421551
   1.00000000  0.50000000  0.34421551
   0.50000000  0.50000000  0.33825795
   0.24687411  0.24687411  0.15075703
   0.75312589  0.24687411  0.15075703
   0.24687411  0.75312589  0.15075703
   0.75312589  0.75312589  0.15075703
   0.50000000  0.00000000  0.00000000
   0.00000000  0.50000000  0.00000000
   0.50000000  0.50000000  0.00000000
   0.23507608  0.23507608  0.50000000
   0.76492392  0.23507608  0.50000000
   0.23507608  0.76492392  0.50000000
   0.76492392  0.76492392  0.50000000
   0.00000000  0.25397165  0.75285513
   0.50000000  0.25254968  0.75113941
   1.00000000  0.74602835  0.75285513
   0.50000000  0.74745032  0.75113941
   0.25397165  1.00000000  0.75285513
   0.74602835  0.00000000  0.75285513
   0.25254968  0.50000000  0.75113941
   0.74745032  0.50000000  0.75113941
   0.25397165  0.00000000  0.24714487
   0.74602835  0.00000000  0.24714487
   0.25254968  0.50000000  0.24886059
   0.74745032  0.50000000  0.24886059
   0.00000000  0.25397165  0.24714487
   0.50000000  0.25254968  0.24886059
   0.00000000  0.74602835  0.24714487
   0.50000000  0.74745032  0.24886059
   0.00000000  0.00000000  0.00000000
Direct configuration=    14
   0.24687411  0.24687411  0.84924297
   0.75312589  0.24687411  0.84924297
   0.24687411  0.75312589  0.84924297
   0.75312589  0.75312589  0.84924297
   0.00000000  0.00000000  0.64415810
   0.50000000  0.00000000  0.65578449
   0.00000000  0.50000000  0.65578449
   0.50000000  0.50000000  0.66174205
   0.00000000  0.00000000  0.35584190
   0.50000000  0.00000000  0.34421551
   0.00000000  0.50000000  0.34421551
   0.50000000  0.50000000  0.33825795
   0.24687411  0.24687411  0.15075703
   0.75312589  0.24687411  0.15075703
   0.24687411  0.75312589  0.15075703
   0.75312589  0.75312589  0.15075703
   0.50000000  0.00000000  1.00000000
   0.00000000  0.50000000  1.00000000
   0.50000000  0.50000000  1.00000000
   0.23507607  0.23507607  0.50000000
   0.76492393  0.23507607  0.50000000
   0.23507607  0.76492393  0.50000000
   0.76492393  0.76492393  0.50000000
   1.00000000  0.25397166  0.75285514
   0.50000000  0.25254969  0.75113941
   0.00000000  0.74602834  0.75285514
   0.50000000  0.74745031  0.75113941
   0.25397166  0.00000000  0.75285514
   0.74602834  0.00000000  0.75285514
   0.25254969  0.50000000  0.75113941
   0.74745031  0.50000000  0.75113941
   0.25397166  0.00000000  0.24714486
   0.74602834  0.00000000  0.24714486
   0.25254969  0.50000000  0.24886059
   0.74745031  0.50000000  0.24886059
   0.00000000  0.25397166  0.24714486
   0.50000000  0.25254969  0.24886059
   0.00000000  0.74602834  0.24714486
   0.50000000  0.74745031  0.24886059
   0.00000000  0.00000000  1.00000000
Direct configuration=    15
   0.24687411  0.24687411  0.84924298
   0.75312589  0.24687411  0.84924298
   0.24687411  0.75312589  0.84924298
   0.75312589  0.75312589  0.84924298
   1.00000000  0.00000000  0.64415809
   0.50000000  1.00000000  0.65578449
   0.00000000  0.50000000  0.65578449
   0.50000000  0.50000000  0.66174206
   0.00000000  0.00000000  0.35584191
   0.50000000  0.00000000  0.34421551
   1.00000000  0.50000000  0.34421551
   0.50000000  0.50000000  0.33825794
   0.24687411  0.24687411  0.15075702
   0.75312589  0.24687411  0.15075702
   0.24687411  0.75312589  0.15075702
   0.75312589  0.75312589  0.15075702
   0.50000000  0.00000000  0.00000000
   0.00000000  0.50000000  0.00000000
   0.50000000  0.50000000  0.00000000
   0.23507605  0.23507605  0.50000000
   0.76492395  0.23507605  0.50000000
   0.23507605  0.76492395  0.50000000
   0.76492395  0.76492395  0.50000000
   0.00000000  0.25397167  0.75285515
   0.50000000  0.25254969  0.75113941
   1.00000000  0.74602833  0.75285515
   0.50000000  0.74745031  0.75113941
   0.25397167  1.00000000  0.75285515
   0.74602833  0.00000000  0.75285515
   0.25254969  0.50000000  0.75113941
   0.74745031  0.50000000  0.75113941
   0.25397167  0.00000000  0.24714485
   0.74602833  0.00000000  0.24714485
   0.25254969  0.50000000  0.24886059
   0.74745031  0.50000000  0.24886059
   0.00000000  0.25397167  0.24714485
   0.50000000  0.25254969  0.24886059
   0.00000000  0.74602833  0.24714485
   0.50000000  0.74745031  0.24886059
   0.00000000  0.00000000  0.00000000
Direct configuration=    16
   0.24687411  0.24687411  0.84924298
   0.75312589  0.24687411  0.84924298
   0.24687411  0.75312589  0.84924298
   0.75312589  0.75312589  0.84924298
   0.00000000  0.00000000  0.64415809
   0.50000000  0.00000000  0.65578451
   0.00000000  0.50000000  0.65578451
   0.50000000  0.50000000  0.66174208
   0.00000000  0.00000000  0.35584191
   0.50000000  0.00000000  0.34421549
   0.00000000  0.50000000  0.34421549
   0.50000000  0.50000000  0.33825792
   0.24687411  0.24687411  0.15075702
   0.75312589  0.24687411  0.15075702
   0.24687411  0.75312589  0.15075702
   0.75312589  0.75312589  0.15075702
   0.50000000  0.00000000  1.00000000
   0.00000000  0.50000000  1.00000000
   0.50000000  0.50000000  1.00000000
   0.23507600  0.23507600  0.50000000
   0.76492400  0.23507600  0.50000000
   0.23507600  0.76492400  0.50000000
   0.76492400  0.76492400  0.50000000
   1.00000000  0.25397170  0.75285517
   0.50000000  0.25254971  0.75113942
   0.00000000  0.74602830  0.75285517
   0.50000000  0.74745029  0.75113942
   0.25397170  0.00000000  0.75285517
   0.74602830  0.00000000  0.75285517
   0.25254971  0.50000000  0.75113942
   0.74745029  0.50000000  0.75113942
   0.25397170  0.00000000  0.24714483
   0.74602830  0.00000000  0.24714483
   0.25254971  0.50000000  0.24886058
   0.74745029  0.50000000  0.24886058
   0.00000000  0.25397170  0.24714483
   0.50000000  0.25254971  0.24886058
   0.00000000  0.74602830  0.24714483
   0.50000000  0.74745029  0.24886058
   0.00000000  0.00000000  1.00000000
Direct configuration=    17
   0.24687410  0.24687410  0.84924298
   0.75312590  0.24687410  0.84924298
   0.24687410  0.75312590  0.84924298
   0.75312590  0.75312590  0.84924298
   1.00000000  0.00000000  0.64415808
   0.50000000  1.00000000  0.65578451
   0.00000000  0.50000000  0.65578451
   0.50000000  0.50000000  0.66174208
   0.00000000  0.00000000  0.35584192
   0.50000000  0.00000000  0.34421549
   1.00000000  0.50000000  0.34421549
   0.50000000  0.50000000  0.33825792
   0.24687410  0.24687410  0.15075702
   0.75312590  0.24687410  0.15075702
   0.24687410  0.75312590  0.15075702
   0.75312590  0.75312590  0.15075702
   0.50000000  0.00000000  0.00000000
   0.00000000  0.50000000  0.00000000
   0.50000000  0.50000000  0.00000000
   0.23507598  0.23507598  0.50000000
   0.76492402  0.23507598  0.50000000
   0.23507598  0.76492402  0.50000000
   0.76492402  0.76492402  0.50000000
   0.00000000  0.25397171  0.75285518
   0.50000000  0.25254971  0.75113942
   1.00000000  0.74602829  0.75285518
   0.50000000  0.74745029  0.75113942
   0.25397171  1.00000000  0.75285518
   0.74602829  0.00000000  0.75285518
   0.25254971  0.50000000  0.75113942
   0.74745029  0.50000000  0.75113942
   0.25397171  0.00000000  0.24714482
   0.74602829  0.00000000  0.24714482
   0.25254971  0.50000000  0.24886058
   0.74745029  0.50000000  0.24886058
   0.00000000  0.25397171  0.24714482
   0.50000000  0.25254971  0.24886058
   0.00000000  0.74602829  0.24714482
   0.50000000  0.74745029  0.24886058
   0.00000000  0.00000000  0.00000000
Direct configuration=    18
   0.24687410  0.24687410  0.84924299
   0.75312590  0.24687410  0.84924299
   0.24687410  0.75312590  0.84924299
   0.75312590  0.75312590  0.84924299
   0.00000000  0.00000000  0.64415808
   0.50000000  0.00000000  0.65578452
   0.00000000  0.50000000  0.65578452
   0.50000000  0.50000000  0.66174210
   0.00000000  0.00000000  0.35584192
   0.50000000  0.00000000  0.34421548
   0.00000000  0.50000000  0.34421548
   0.50000000  0.50000000  0.33825790
   0.24687410  0.24687410  0.15075701
   0.75312590  0.24687410  0.15075701
   0.24687410  0.75312590  0.15075701
   0.75312590  0.75312590  0.15075701
   0.50000000  0.00000000  1.00000000
   0.00000000  0.50000000  1.00000000
   0.50000000  0.50000000  1.00000000
   0.23507595  0.23507595  0.50000000
   0.76492405  0.23507595  0.50000000
   0.23507595  0.76492405  0.50000000
   0.76492405  0.76492405  0.50000000
   1.00000000  0.25397172  0.75285519
   0.50000000  0.25254972  0.75113942
   0.00000000  0.74602828  0.75285519
   0.50000000  0.74745028  0.75113942
   0.25397172  0.00000000  0.75285519
   0.74602828  0.00000000  0.75285519
   0.25254972  0.50000000  0.75113942
   0.74745028  0.50000000  0.75113942
   0.25397172  0.00000000  0.24714481
   0.74602828  0.00000000  0.24714481
   0.25254972  0.50000000  0.24886058
   0.74745028  0.50000000  0.24886058
   0.00000000  0.25397172  0.24714481
   0.50000000  0.25254972  0.24886058
   0.00000000  0.74602828  0.24714481
   0.50000000  0.74745028  0.24886058
   0.00000000  0.00000000  1.00000000
Direct configuration=    19
   0.24687410  0.24687410  0.84924299
   0.75312590  0.24687410  0.84924299
   0.24687410  0.75312590  0.84924299
   0.75312590  0.75312590  0.84924299
   1.00000000  0.00000000  0.64415807
   0.50000000  1.00000000  0.65578453
   0.00000000  0.50000000  0.65578453
   0.50000000  0.50000000  0.66174212
   0.00000000  0.00000000  0.35584193
   0.50000000  0.00000000  0.34421547
   1.00000000  0.50000000  0.34421547
   0.50000000  0.50000000  0.33825788
   0.24687410  0.24687410  0.15075701
   0.75312590  0.24687410  0.15075701
   0.24687410  0.75312590  0.15075701
   0.75312590  0.75312590  0.15075701
   0.50000000  0.00000000  0.00000000
   0.00000000  0.50000000  0.00000000
   0.50000000  0.50000000  0.00000000
   0.23507588  0.23507588  0.50000000
   0.76492412  0.23507588  0.50000000
   0.23507588  0.76492412  0.50000000
   0.76492412  0.76492412  0.50000000
   0.00000000  0.25397176  0.75285522
   0.50000000  0.25254974  0.75113942
   1.00000000  0.74602824  0.75285522
   0.50000000  0.74745026  0.75113942
   0.25397176  1.00000000  0.75285522
   0.74602824  0.00000000  0.75285522
   0.25254974  0.50000000  0.75113942
   0.74745026  0.50000000  0.75113942
   0.25397176  0.00000000  0.24714478
   0.74602824  0.00000000  0.24714478
   0.25254974  0.50000000  0.24886058
   0.74745026  0.50000000  0.24886058
   0.00000000  0.25397176  0.24714478
   0.50000000  0.25254974  0.24886058
   0.00000000  0.74602824  0.24714478
   0.50000000  0.74745026  0.24886058
   0.00000000  0.00000000  0.00000000
Direct configuration=    20
   0.24687410  0.24687410  0.84924300
   0.75312590  0.24687410  0.84924300
   0.24687410  0.75312590  0.84924300
   0.75312590  0.75312590  0.84924300
   0.00000000  0.00000000  0.64415805
   0.50000000  0.00000000  0.65578454
   0.00000000  0.50000000  0.65578454
   0.50000000  0.50000000  0.66174213
   0.00000000  0.00000000  0.35584195