  40  40   0   0
  0.1844845E+02  0.7761758E-09  0.7761758E-09  0.1224897E-08  0.5000000E-15
  1.000000000000000E-004
  CAR 
 unknown system                          
     13.66997878    -17.82614446  301      6.85894213      1.00000000
    -17.826  0.0000E+00  0.0000E+00
    -17.721  0.0000E+00  0.0000E+00
    -17.616  0.0000E+00  0.0000E+00
    -17.511  0.0000E+00  0.0000E+00
    -17.406  0.0000E+00  0.0000E+00
    -17.301  0.0000E+00  0.0000E+00
    -17.196  0.0000E+00  0.0000E+00
    -17.091  0.0000E+00  0.0000E+00
    -16.986  0.0000E+00  0.0000E+00
    -16.881  0.0000E+00  0.0000E+00
    -16.776  0.0000E+00  0.0000E+00
    -16.671  0.2044E-15  0.2146E-16
    -16.566  0.9667E-07  0.1015E-07
    -16.461  0.1250E-01  0.1313E-02
    -16.356  0.1200E+01  0.1273E+00
    -16.251  0.1732E+01  0.3092E+00
    -16.146  0.7744E+01  0.1122E+01
    -16.041  0.4524E+01  0.1597E+01
    -15.936  0.2690E-01  0.1600E+01
    -15.831  0.9799E-07  0.1600E+01
    -15.726  0.1807E-16  0.1600E+01
    -15.621  0.0000E+00  0.1600E+01
    -15.516  0.0000E+00  0.1600E+01
    -15.411  0.0000E+00  0.1600E+01
    -15.306  0.0000E+00  0.1600E+01
    -15.201  0.0000E+00  0.1600E+01
    -15.096  0.0000E+00  0.1600E+01
    -14.991  0.0000E+00  0.1600E+01
    -14.887  0.0000E+00  0.1600E+01
    -14.782  0.0000E+00  0.1600E+01
    -14.677  0.0000E+00  0.1600E+01
    -14.572  0.0000E+00  0.1600E+01
    -14.467  0.0000E+00  0.1600E+01
    -14.362  0.0000E+00  0.1600E+01
    -14.257  0.0000E+00  0.1600E+01
    -14.152  0.0000E+00  0.1600E+01
    -14.047  0.0000E+00  0.1600E+01
    -13.942  0.0000E+00  0.1600E+01
    -13.837  0.0000E+00  0.1600E+01
    -13.732  0.0000E+00  0.1600E+01
    -13.627  0.0000E+00  0.1600E+01
    -13.522  0.0000E+00  0.1600E+01
    -13.417  0.0000E+00  0.1600E+01
    -13.312  0.0000E+00  0.1600E+01
    -13.207  0.0000E+00  0.1600E+01
    -13.102  0.1432E-16  0.1600E+01
    -12.997  0.4781E-08  0.1600E+01
    -12.892  0.3814E-03  0.1600E+01
    -12.787  0.1945E-01  0.1602E+01
    -12.682  0.7743E-01  0.1610E+01
    -12.577  0.9488E-01  0.1620E+01
    -12.472  0.2541E-01  0.1623E+01
    -12.367  0.8928E-01  0.1632E+01
    -12.262  0.1751E+00  0.1651E+01
    -12.157  0.1848E-01  0.1653E+01
    -12.052  0.4912E-01  0.1658E+01
    -11.947  0.1123E+00  0.1669E+01
    -11.842  0.1969E+00  0.1690E+01
    -11.737  0.3708E-01  0.1694E+01
    -11.632  0.1608E+00  0.1711E+01
    -11.527  0.1648E-01  0.1713E+01
    -11.422  0.1691E+00  0.1730E+01
    -11.317  0.2469E+00  0.1756E+01
    -11.212  0.1646E+00  0.1774E+01
    -11.107  0.1928E+00  0.1794E+01
    -11.002  0.1330E+00  0.1808E+01
    -10.897  0.4481E+00  0.1855E+01
    -10.792  0.2972E-01  0.1858E+01
    -10.687  0.9202E-01  0.1868E+01
    -10.582  0.2419E+00  0.1893E+01
    -10.477  0.6187E-01  0.1900E+01
    -10.372  0.1427E+00  0.1915E+01
    -10.267  0.5085E-01  0.1920E+01
    -10.162  0.1384E-02  0.1920E+01
    -10.057  0.6427E-07  0.1920E+01
     -9.952  0.6618E-15  0.1920E+01
     -9.847  0.0000E+00  0.1920E+01
     -9.742  0.0000E+00  0.1920E+01
     -9.637  0.0000E+00  0.1920E+01
     -9.532  0.0000E+00  0.1920E+01
     -9.427  0.0000E+00  0.1920E+01
     -9.322  0.0000E+00  0.1920E+01
     -9.217  0.0000E+00  0.1920E+01
     -9.112  0.0000E+00  0.1920E+01
     -9.007  0.0000E+00  0.1920E+01
     -8.902  0.0000E+00  0.1920E+01
     -8.797  0.0000E+00  0.1920E+01
     -8.692  0.0000E+00  0.1920E+01
     -8.587  0.0000E+00  0.1920E+01
     -8.482  0.0000E+00  0.1920E+01
     -8.377  0.0000E+00  0.1920E+01
     -8.272  0.0000E+00  0.1920E+01
     -8.167  0.0000E+00  0.1920E+01
     -8.062  0.0000E+00  0.1920E+01
     -7.957  0.0000E+00  0.1920E+01
     -7.852  0.0000E+00  0.1920E+01
     -7.747  0.0000E+00  0.1920E+01
     -7.642  0.0000E+00  0.1920E+01
     -7.537  0.0000E+00  0.1920E+01
     -7.432  0.0000E+00  0.1920E+01
     -7.327  0.0000E+00  0.1920E+01
     -7.222  0.0000E+00  0.1920E+01
     -7.117  0.0000E+00  0.1920E+01
     -7.012  0.0000E+00  0.1920E+01
     -6.907  0.0000E+00  0.1920E+01
     -6.803  0.0000E+00  0.1920E+01
     -6.698  0.0000E+00  0.1920E+01
     -6.593  0.0000E+00  0.1920E+01
     -6.488  0.2037E-13  0.1920E+01
     -6.383  0.2509E-06  0.1920E+01
     -6.278  0.7696E-03  0.1920E+01
     -6.173  0.6280E-02  0.1921E+01
     -6.068  0.2489E-01  0.1923E+01
     -5.963  0.4444E-01  0.1928E+01
     -5.858  0.3392E-01  0.1932E+01
     -5.753  0.3903E-01  0.1936E+01
     -5.648  0.9914E-01  0.1946E+01
     -5.543  0.8757E-01  0.1955E+01
     -5.438  0.5037E-01  0.1961E+01
     -5.333  0.9117E-01  0.1970E+01
     -5.228  0.7938E-01  0.1978E+01
     -5.123  0.1173E+00  0.1991E+01
     -5.018  0.9801E-01  0.2001E+01
     -4.913  0.1168E+00  0.2013E+01
     -4.808  0.1433E+00  0.2028E+01
     -4.703  0.9137E-01  0.2038E+01
     -4.598  0.1795E+00  0.2057E+01
     -4.493  0.8095E-01  0.2065E+01
     -4.388  0.6686E-01  0.2072E+01
     -4.283  0.8540E-01  0.2081E+01
     -4.178  0.1478E+00  0.2097E+01
     -4.073  0.1097E+00  0.2108E+01
     -3.968  0.2702E+00  0.2137E+01
     -3.863  0.3816E+00  0.2177E+01
     -3.758  0.3627E+00  0.2215E+01
     -3.653  0.1674E+00  0.2232E+01
     -3.548  0.1824E+00  0.2252E+01
     -3.443  0.8964E-01  0.2261E+01
     -3.338  0.1429E+00  0.2276E+01
     -3.233  0.1500E+00  0.2292E+01
     -3.128  0.1576E+00  0.2308E+01
     -3.023  0.9613E-01  0.2318E+01
     -2.918  0.4092E-01  0.2323E+01
     -2.813  0.6768E-01  0.2330E+01
     -2.708  0.1021E+00  0.2340E+01
     -2.603  0.6052E-01  0.2347E+01
     -2.498  0.6195E-02  0.2347E+01
     -2.393  0.2256E-02  0.2348E+01
     -2.288  0.1251E+00  0.2361E+01
     -2.183  0.9661E-01  0.2371E+01
     -2.078  0.6121E-01  0.2377E+01
     -1.973  0.8769E-02  0.2378E+01
     -1.868  0.3276E-01  0.2382E+01
     -1.763  0.2899E-01  0.2385E+01
     -1.658  0.5904E-01  0.2391E+01
     -1.553  0.1995E-01  0.2393E+01
     -1.448  0.2960E-01  0.2396E+01
     -1.343  0.2139E-01  0.2398E+01
     -1.238  0.3170E-02  0.2399E+01
     -1.133  0.6914E-02  0.2400E+01
     -1.028  0.3661E-02  0.2400E+01
     -0.923  0.6254E-03  0.2400E+01
     -0.818  0.1403E-06  0.2400E+01
     -0.713  0.7601E-14  0.2400E+01
     -0.608  0.0000E+00  0.2400E+01
     -0.503  0.0000E+00  0.2400E+01
     -0.398  0.0000E+00  0.2400E+01
     -0.293  0.0000E+00  0.2400E+01
     -0.188  0.0000E+00  0.2400E+01
     -0.083  0.0000E+00  0.2400E+01
      0.022  0.0000E+00  0.2400E+01
      0.127  0.0000E+00  0.2400E+01
      0.232  0.0000E+00  0.2400E+01
      0.337  0.0000E+00  0.2400E+01
      0.442  0.2484E-13  0.2400E+01
      0.547  0.4062E-06  0.2400E+01
      0.652  0.1949E-02  0.2400E+01
      0.757  0.2431E-01  0.2403E+01
      0.862  0.7605E-01  0.2411E+01
      0.967  0.3231E+00  0.2445E+01
      1.072  0.2482E+00  0.2471E+01
      1.177  0.2614E+00  0.2498E+01
      1.282  0.2759E+00  0.2527E+01
      1.386  0.2232E+00  0.2551E+01
      1.491  0.1817E+00  0.2570E+01
      1.596  0.2581E+00  0.2597E+01
      1.701  0.2847E+00  0.2627E+01
      1.806  0.1110E+00  0.2638E+01
      1.911  0.1059E+00  0.2649E+01
      2.016  0.2192E+00  0.2672E+01
      2.121  0.2596E+00  0.2700E+01
      2.226  0.1886E+00  0.2719E+01
      2.331  0.2254E+00  0.2743E+01
      2.436  0.1519E+00  0.2759E+01
      2.541  0.3307E+00  0.2794E+01
      2.646  0.3387E+00  0.2829E+01
      2.751  0.2803E+00  0.2859E+01
      2.856  0.2405E+00  0.2884E+01
      2.961  0.1600E+00  0.2901E+01
      3.066  0.1909E+00  0.2921E+01
      3.171  0.2548E+00  0.2948E+01
      3.276  0.4422E+00  0.2994E+01
      3.381  0.2991E+00  0.3025E+01
      3.486  0.1268E+00  0.3039E+01
      3.591  0.2609E+00  0.3066E+01
      3.696  0.1552E+00  0.3082E+01
      3.801  0.2599E+00  0.3110E+01
      3.906  0.1355E+00  0.3124E+01
      4.011  0.2514E+00  0.3150E+01
      4.116  0.3066E+00  0.3183E+01
      4.221  0.4089E+00  0.3225E+01
      4.326  0.1870E+00  0.3245E+01
      4.431  0.2990E+00  0.3276E+01
      4.536  0.3066E+00  0.3309E+01
      4.641  0.2776E+00  0.3338E+01
      4.746  0.2170E+00  0.3361E+01
      4.851  0.3648E+00  0.3399E+01
      4.956  0.2434E+00  0.3424E+01
      5.061  0.1752E+00  0.3443E+01
      5.166  0.1781E+00  0.3462E+01
      5.271  0.9061E-01  0.3471E+01
      5.376  0.1401E+00  0.3486E+01
      5.481  0.4546E+00  0.3533E+01
      5.586  0.3813E+00  0.3574E+01
      5.691  0.4676E+00  0.3623E+01
      5.796  0.4565E+00  0.3671E+01
      5.901  0.2599E+00  0.3698E+01
      6.006  0.2541E+00  0.3724E+01
      6.111  0.2417E+00  0.3750E+01
      6.216  0.1248E+00  0.3763E+01
      6.321  0.2700E+00  0.3791E+01
      6.426  0.2816E+00  0.3821E+01
      6.531  0.1392E+00  0.3835E+01
      6.636  0.3596E-01  0.3839E+01
      6.741  0.6959E-02  0.3840E+01
      6.846  0.5153E-05  0.3840E+01
      6.951  0.2345E-09  0.3840E+01
      7.056  0.3955E-04  0.3840E+01
      7.161  0.2895E-02  0.3840E+01
      7.266  0.1035E-02  0.3840E+01
      7.371  0.2274E-02  0.3841E+01
      7.476  0.5957E-02  0.3841E+01
      7.581  0.6841E-02  0.3842E+01
      7.686  0.9306E-03  0.3842E+01
      7.791  0.6388E-02  0.3843E+01
      7.896  0.7635E-02  0.3844E+01
      8.001  0.1927E-01  0.3846E+01
      8.106  0.4958E-01  0.3851E+01
      8.211  0.4333E-01  0.3855E+01
      8.316  0.2788E-01  0.3858E+01
      8.421  0.6480E-01  0.3865E+01
      8.526  0.1057E+00  0.3876E+01
      8.631  0.8204E-01  0.3885E+01
      8.736  0.8480E-01  0.3894E+01
      8.841  0.7286E-01  0.3901E+01
      8.946  0.1019E+00  0.3912E+01
      9.051  0.6701E-01  0.3919E+01
      9.156  0.2064E+00  0.3941E+01
      9.261  0.2966E+00  0.3972E+01
      9.366  0.2163E+00  0.3995E+01
      9.470  0.2101E+00  0.4017E+01
      9.575  0.1827E+00  0.4036E+01
      9.680  0.2806E+00  0.4065E+01
      9.785  0.2143E+00  0.4088E+01
      9.890  0.1883E+00  0.4108E+01
      9.995  0.2312E+00  0.4132E+01
     10.100  0.2963E+00  0.4163E+01
     10.205  0.2916E+00  0.4194E+01
     10.310  0.2037E+00  0.4215E+01
     10.415  0.2508E+00  0.4241E+01
     10.520  0.2122E+00  0.4264E+01
     10.625  0.3155E+00  0.4297E+01
     10.730  0.2370E+00  0.4322E+01
     10.835  0.2403E+00  0.4347E+01
     10.940  0.1850E+00  0.4366E+01
     11.045  0.1735E+00  0.4384E+01
     11.150  0.1473E+00  0.4400E+01
     11.255  0.1832E+00  0.4419E+01
     11.360  0.1707E+00  0.4437E+01
     11.465  0.2492E+00  0.4463E+01
     11.570  0.3416E+00  0.4499E+01
     11.675  0.3319E+00  0.4534E+01
     11.780  0.2927E+00  0.4565E+01
     11.885  0.3254E+00  0.4599E+01
     11.990  0.2806E+00  0.4628E+01
     12.095  0.6960E-01  0.4636E+01
     12.200  0.2523E-01  0.4638E+01
     12.305  0.1691E-01  0.4640E+01
     12.410  0.2779E-03  0.4640E+01
     12.515  0.4797E-08  0.4640E+01
     12.620  0.1939E-16  0.4640E+01
     12.725  0.0000E+00  0.4640E+01
     12.830  0.0000E+00  0.4640E+01
     12.935  0.0000E+00  0.4640E+01
     13.040  0.0000E+00  0.4640E+01
     13.145  0.0000E+00  0.4640E+01
     13.250  0.0000E+00  0.4640E+01
     13.355  0.0000E+00  0.4640E+01
     13.460  0.0000E+00  0.4640E+01
     13.565  0.0000E+00  0.4640E+01
     13.670  0.0000E+00  0.4640E+01
