 vasp.6.4.3 19Mar24 (build Apr 09 2025 20:43:19) complex                        
  
 executed on             LinuxIFC date 2025.04.13  12:27:08
 running   36 mpi-ranks, on    1 nodes
 distrk:  each k-point on   36 cores,    1 groups
 distr:  one band on NCORE=   9 cores,    4 groups


--------------------------------------------------------------------------------------------------------


 INCAR:
   PREC = Accurate
   IBRION = 2
   NSW = 100
   NELMIN = 5
   ISIF = 2
   ENCUT = 520
   EDIFF = 1.000000e-08
   EDIFFG = -1.000000e-5
   ISMEAR = 0
   SIGMA = 0.05
   IALGO = 38
   LREAL = .FALSE.
   ADDGRID = .TRUE.
   LWAVE = .FALSE.
   LCHARG = .FALSE.
   NCORE = 9

 POTCAR:    PAW_PBE Bi_d 06Sep2000                
 POTCAR:    PAW_PBE Se 06Sep2000                  
 POTCAR:    PAW_PBE O 08Apr2002                   
 POTCAR:    PAW_PBE S 06Sep2000                   
 POTCAR:    PAW_PBE Bi_d 06Sep2000                
   SHA256 =  572e7eac3f9482ff025db24f2820381a7a3856069fa85913dc654793f618f69a Bi_d/POTCAR           
   COPYR  = (c) Copyright 06Sep2000 Georg Kresse                                                    
   COPYR  = This file is part of the software VASP. Any use, copying, and all other rights are regul
   COPYR  = If you do not have a valid VASP license, you may not use, copy or distribute this file. 
   VRHFIN =Bi:                                                                                      
   LEXCH  = PE                                                                                      
   EATOM  =  1959.2045 eV,  143.9975 Ry                                                             
                                                                                                    
   TITEL  = PAW_PBE Bi_d 06Sep2000                                                                  
   LULTRA =        F    use ultrasoft PP ?                                                          
   IUNSCR =        1    unscreen: 0-lin 1-nonlin 2-no                                               
   RPACOR =    2.200    partial core radius                                                         
   POMASS =  208.980; ZVAL   =   15.000    mass and valenz                                          
   RCORE  =    2.500    outmost cutoff radius                                                       
   RWIGS  =    3.090; RWIGS  =    1.635    wigner-seitz radius (au A)                               
   ENMAX  =  242.839; ENMIN  =  182.129 eV                                                          
   ICORE  =        3    local potential                                                             
   LCOR   =        T    correct aug charges                                                         
   LPAW   =        T    paw PP                                                                      
   EAUG   =  442.899                                                                                
   DEXC   =    0.000                                                                                
   RMAX   =    2.551    core radius for proj-oper                                                   
   RAUG   =    1.300    factor for augmentation sphere                                              
   RDEP   =    2.650    radius for radial grids                                                     
   RDEPT  =    2.039    core radius for aug-charge                                                  
                                                                                                    
   Atomic configuration                                                                             
   16 entries                                                                                       
     n  l   j            E        occ.                                                              
     1  0  0.50    -90639.6581   2.0000                                                             
     2  0  0.50    -16282.4666   2.0000                                                             
     2  1  1.50    -13922.8286   6.0000                                                             
     3  0  0.50     -3930.4763   2.0000                                                             
     3  1  1.50     -3256.7013   6.0000                                                             
     3  2  2.50     -2581.6168  10.0000                                                             
     4  0  0.50      -902.2614   2.0000                                                             
     4  1  1.50      -681.5915   6.0000                                                             
     4  2  2.50      -429.8249  10.0000                                                             
     4  3  3.50      -152.6004  14.0000                                                             
     5  0  0.50      -157.7156   2.0000                                                             
     5  1  1.50       -95.8054   6.0000                                                             
     5  2  2.50       -27.0806  10.0000                                                             
     6  0  0.50       -14.4732   2.0000                                                             
     6  1  1.50        -4.5702   3.0000                                                             
     5  3  2.50        -2.7212   0.0000                                                             
   Description                                                                                      
     l       E           TYP  RCUT    TYP  RCUT                                                     
     2    -27.0805982     23  2.500                                                                 
     2     -1.3605826     23  2.500                                                                 
     0    -14.4732271     23  2.500                                                                 
     0      6.8029130     23  2.500                                                                 
     1     -4.5701651     23  2.500                                                                 
     1     13.6058260     23  2.500                                                                 
     3     -1.3605826      7  2.500                                                                 
  local pseudopotential read in
  partial core-charges read in
  partial kinetic energy density read in
  atomic valenz-charges read in
  non local Contribution for L=           2  read in
    real space projection operators read in
  non local Contribution for L=           2  read in
    real space projection operators read in
  non local Contribution for L=           0  read in
    real space projection operators read in
  non local Contribution for L=           0  read in
    real space projection operators read in
  non local Contribution for L=           1  read in
    real space projection operators read in
  non local Contribution for L=           1  read in
    real space projection operators read in
    PAW grid and wavefunctions read in
 
   number of l-projection  operators is LMAX  =           6
   number of lm-projection operators is LMMAX =          18
 
 POTCAR:    PAW_PBE Se 06Sep2000                  
   SHA256 =  eabb916e6b4c819dc065ce039373bc328651da483898f08fb9e49c498452bf12 Se/POTCAR             
   COPYR  = (c) Copyright 06Sep2000 Georg Kresse                                                    
   COPYR  = This file is part of the software VASP. Any use, copying, and all other rights are regul
   COPYR  = If you do not have a valid VASP license, you may not use, copy or distribute this file. 
   VRHFIN =Se: s2p4                                                                                 
   LEXCH  = PE                                                                                      
   EATOM  =   257.1286 eV,   18.8984 Ry                                                             
                                                                                                    
   TITEL  = PAW_PBE Se 06Sep2000                                                                    
   LULTRA =        F    use ultrasoft PP ?                                                          
   IUNSCR =        1    unscreen: 0-lin 1-nonlin 2-no                                               
   RPACOR =    1.900    partial core radius                                                         
   POMASS =   78.960; ZVAL   =    6.000    mass and valenz                                          
   RCORE  =    2.100    outmost cutoff radius                                                       
   RWIGS  =    2.200; RWIGS  =    1.164    wigner-seitz radius (au A)                               
   ENMAX  =  211.555; ENMIN  =  158.666 eV                                                          
   ICORE  =        3    local potential                                                             
   LCOR   =        T    correct aug charges                                                         
   LPAW   =        T    paw PP                                                                      
   EAUG   =  446.842                                                                                
   DEXC   =    0.000                                                                                
   RMAX   =    2.147    core radius for proj-oper                                                   
   RAUG   =    1.300    factor for augmentation sphere                                              
   RDEP   =    2.177    radius for radial grids                                                     
   RDEPT  =    1.928    core radius for aug-charge                                                  
                                                                                                    
   Atomic configuration                                                                             
   10 entries                                                                                       
     n  l   j            E        occ.                                                              
     1  0  0.50    -12503.4787   2.0000                                                             
     2  0  0.50     -1606.9547   2.0000                                                             
     2  1  1.50     -1413.3140   6.0000                                                             
     3  0  0.50      -213.4885   2.0000                                                             
     3  1  1.50      -152.9538   6.0000                                                             
     3  2  2.50       -53.1221  10.0000                                                             
     4  0  0.50       -17.2865   2.0000                                                             
     4  1  0.50        -6.5110   4.0000                                                             
     4  2  2.50        -6.8029   0.0000                                                             
     4  3  2.50        -6.8029   0.0000                                                             
   Description                                                                                      
     l       E           TYP  RCUT    TYP  RCUT                                                     
     0    -17.2865377     23  2.100                                                                 
     0    -15.3094411     23  2.100                                                                 
     1     -6.5110275     23  2.100                                                                 
     1     -0.0695192     23  2.100                                                                 
     2     -6.8029130     23  2.100                                                                 
     3     -1.3605826      7  2.100                                                                 
  local pseudopotential read in
  partial core-charges read in
  partial kinetic energy density read in
  atomic valenz-charges read in
  non local Contribution for L=           0  read in
    real space projection operators read in
  non local Contribution for L=           0  read in
    real space projection operators read in
  non local Contribution for L=           1  read in
    real space projection operators read in
  non local Contribution for L=           1  read in
    real space projection operators read in
  non local Contribution for L=           2  read in
    real space projection operators read in
    PAW grid and wavefunctions read in
 
   number of l-projection  operators is LMAX  =           5
   number of lm-projection operators is LMMAX =          13
 
 POTCAR:    PAW_PBE O 08Apr2002                   
   SHA256 =  818f92134a0a090dccd8ba1447fa70422a3b330e708bb4f08108d8ae51209ddf O/POTCAR              
   COPYR  = (c) Copyright 08Apr2002 Georg Kresse                                                    
   COPYR  = This file is part of the software VASP. Any use, copying, and all other rights are regul
   COPYR  = If you do not have a valid VASP license, you may not use, copy or distribute this file. 
   VRHFIN =O: s2p4                                                                                  
   LEXCH  = PE                                                                                      
   EATOM  =   432.3788 eV,   31.7789 Ry                                                             
                                                                                                    
   TITEL  = PAW_PBE O 08Apr2002                                                                     
   LULTRA =        F    use ultrasoft PP ?                                                          
   IUNSCR =        1    unscreen: 0-lin 1-nonlin 2-no                                               
   RPACOR =    1.200    partial core radius                                                         
   POMASS =   16.000; ZVAL   =    6.000    mass and valenz                                          
   RCORE  =    1.520    outmost cutoff radius                                                       
   RWIGS  =    1.550; RWIGS  =    0.820    wigner-seitz radius (au A)                               
   ENMAX  =  400.000; ENMIN  =  300.000 eV                                                          
   ICORE  =        2    local potential                                                             
   LCOR   =        T    correct aug charges                                                         
   LPAW   =        T    paw PP                                                                      
   EAUG   =  605.392                                                                                
   DEXC   =    0.000                                                                                
   RMAX   =    1.553    core radius for proj-oper                                                   
   RAUG   =    1.300    factor for augmentation sphere                                              
   RDEP   =    1.550    radius for radial grids                                                     
   RDEPT  =    1.329    core radius for aug-charge                                                  
                                                                                                    
   Atomic configuration                                                                             
    4 entries                                                                                       
     n  l   j            E        occ.                                                              
     1  0  0.50      -514.6923   2.0000                                                             
     2  0  0.50       -23.9615   2.0000                                                             
     2  1  0.50        -9.0305   4.0000                                                             
     3  2  1.50        -9.5241   0.0000                                                             
   Description                                                                                      
     l       E           TYP  RCUT    TYP  RCUT                                                     
     0    -23.9615318     23  1.200                                                                 
     0     -9.5240782     23  1.200                                                                 
     1     -9.0304911     23  1.520                                                                 
     1      8.1634956     23  1.520                                                                 
     2     -9.5240782      7  1.500                                                                 
  local pseudopotential read in
  partial core-charges read in
  partial kinetic energy density read in
  kinetic energy density of atom read in
  atomic valenz-charges read in
  non local Contribution for L=           0  read in
    real space projection operators read in
  non local Contribution for L=           0  read in
    real space projection operators read in
  non local Contribution for L=           1  read in
    real space projection operators read in
  non local Contribution for L=           1  read in
    real space projection operators read in
    PAW grid and wavefunctions read in
 
   number of l-projection  operators is LMAX  =           4
   number of lm-projection operators is LMMAX =           8
 
 POTCAR:    PAW_PBE S 06Sep2000                   
   SHA256 =  0fc7481fb0695f01bdc6462160264c5c84044ae9ec85a907d398b887a2bc3132 S/POTCAR              
   COPYR  = (c) Copyright 06Sep2000 Georg Kresse                                                    
   COPYR  = This file is part of the software VASP. Any use, copying, and all other rights are regul
   COPYR  = If you do not have a valid VASP license, you may not use, copy or distribute this file. 
   VRHFIN =S : s2p4                                                                                 
   LEXCH  = PE                                                                                      
   EATOM  =   276.8230 eV,   20.3459 Ry                                                             
                                                                                                    
   TITEL  = PAW_PBE S 06Sep2000                                                                     
   LULTRA =        F    use ultrasoft PP ?                                                          
   IUNSCR =        1    unscreen: 0-lin 1-nonlin 2-no                                               
   RPACOR =    1.500    partial core radius                                                         
   POMASS =   32.066; ZVAL   =    6.000    mass and valenz                                          
   RCORE  =    1.900    outmost cutoff radius                                                       
   RWIGS  =    2.200; RWIGS  =    1.164    wigner-seitz radius (au A)                               
   ENMAX  =  258.689; ENMIN  =  194.016 eV                                                          
   ICORE  =        2    local potential                                                             
   LCOR   =        T    correct aug charges                                                         
   LPAW   =        T    paw PP                                                                      
   EAUG   =  335.092                                                                                
   DEXC   =    0.000                                                                                
   RMAX   =    1.942    core radius for proj-oper                                                   
   RAUG   =    1.300    factor for augmentation sphere                                              
   RDEP   =    1.954    radius for radial grids                                                     
   RDEPT  =    1.744    core radius for aug-charge                                                  
                                                                                                    
   Atomic configuration                                                                             
    6 entries                                                                                       
     n  l   j            E        occ.                                                              
     1  0  0.50     -2405.8406   2.0000                                                             
     2  0  0.50      -211.7007   2.0000                                                             
     2  1  1.50      -156.4958   6.0000                                                             
     3  0  0.50       -17.2562   2.0000                                                             
     3  1  0.50        -7.0085   4.0000                                                             
     3  2  1.50        -6.8029   0.0000                                                             
   Description                                                                                      
     l       E           TYP  RCUT    TYP  RCUT                                                     
     0    -17.2561641     23  1.900                                                                 
     0    -15.8743224     23  1.900                                                                 
     1     -7.0085400     23  1.900                                                                 
     1     -2.7779785     23  1.900                                                                 
     2     -6.8029130     23  1.900                                                                 
  local pseudopotential read in
  partial core-charges read in
  partial kinetic energy density read in
  atomic valenz-charges read in
  non local Contribution for L=           0  read in
    real space projection operators read in
  non local Contribution for L=           0  read in
    real space projection operators read in
  non local Contribution for L=           1  read in
    real space projection operators read in
  non local Contribution for L=           1  read in
    real space projection operators read in
    PAW grid and wavefunctions read in
 
   number of l-projection  operators is LMAX  =           4
   number of lm-projection operators is LMMAX =           8
 
 -----------------------------------------------------------------------------
|                                                                             |
|               ----> ADVICE to this user running VASP <----                  |
|                                                                             |
|     You have a (more or less) 'large supercell' and for larger cells it     |
|     might be more efficient to use real-space projection operators.         |
|     Therefore, try LREAL= Auto in the INCAR file.                           |
|     Mind: For very accurate calculation, you might also keep the            |
|     reciprocal projection scheme (i.e. LREAL=.FALSE.).                      |
|                                                                             |
 -----------------------------------------------------------------------------

  PAW_PBE Bi_d 06Sep2000                :
 energy of atom  1       EATOM=-1959.2045
 kinetic energy error for atom=    0.0040 (will be added to EATOM!!)
  PAW_PBE Se 06Sep2000                  :
 energy of atom  2       EATOM= -257.1286
 kinetic energy error for atom=    0.0007 (will be added to EATOM!!)
  PAW_PBE O 08Apr2002                   :
 energy of atom  3       EATOM= -432.3788
 kinetic energy error for atom=    0.0208 (will be added to EATOM!!)
  PAW_PBE S 06Sep2000                   :
 energy of atom  4       EATOM= -276.8230
 kinetic energy error for atom=    0.0016 (will be added to EATOM!!)
 
 
 POSCAR: generated by phonopy
  positions in direct lattice
  velocities in cartesian coordinates


 exchange-correlation table for PE
   RHO(1)=    0.500       N(1)  =     2000
   RHO(2)=  100.500       N(2)  =     4000
 


--------------------------------------------------------------------------------------------------------


 ion  position               nearest neighbor table
   1  0.249  0.249  0.856-  24 2.32  28 2.32  25 2.33  30 2.33  40 3.25  18 3.26  17 3.26  19 3.27
                            13 3.54   5 3.76   7 3.76   6 3.76   8 3.76   3 3.86   2 3.86   3 3.90
   2  0.751  0.249  0.856-  24 2.32  29 2.32  31 2.33  25 2.33  40 3.25  18 3.26  17 3.26  19 3.27
                            14 3.54   5 3.76   7 3.76   6 3.76   8 3.76   4 3.86   1 3.86   4 3.90
   3  0.249  0.751  0.856-  28 2.32  26 2.32  27 2.33  30 2.33  40 3.25  17 3.26  18 3.26  19 3.27
                            15 3.54   5 3.76   6 3.76   7 3.76   8 3.76   4 3.86   1 3.86   4 3.90
   4  0.751  0.751  0.856-  26 2.32  29 2.32  27 2.33  31 2.33  40 3.25  18 3.26  17 3.26  19 3.27
                            16 3.54   5 3.76   7 3.76   6 3.76   8 3.76   3 3.86   2 3.86   2 3.90
   5  0.000  0.000  0.645-  24 2.33  26 2.33  28 2.33  29 2.33  20 3.27  21 3.27  22 3.27  23 3.27
                             9 3.56   4 3.76   2 3.76   3 3.76   1 3.76   7 3.88   6 3.88   7 3.88
   6  0.500  0.000  0.646-  28 2.33  29 2.33  25 2.33  27 2.33  20 3.28  21 3.28  22 3.28  23 3.28
                            10 3.58   3 3.76   4 3.76   1 3.76   2 3.76   5 3.88   5 3.88   8 3.88
   7  0.000  0.500  0.646-  24 2.33  26 2.33  30 2.33  31 2.33  20 3.28  21 3.28  22 3.28  23 3.28
                            11 3.58   2 3.76   4 3.76   1 3.76   3 3.76   5 3.88   5 3.88   8 3.88
   8  0.500  0.500  0.647-  25 2.33  27 2.33  30 2.33  31 2.33  20 3.28  21 3.28  22 3.28  23 3.28
                            12 3.60   1 3.76   3 3.76   2 3.76   4 3.76   7 3.88   6 3.88   6 3.88
   9  0.000  0.000  0.355-  32 2.33  33 2.33  36 2.33  38 2.33  20 3.27  21 3.27  22 3.27  23 3.27
                             5 3.56  16 3.76  15 3.76  14 3.76  13 3.76  10 3.88  11 3.88  11 3.88
  10  0.500  0.000  0.354-  32 2.33  33 2.33  37 2.33  39 2.33  20 3.28  21 3.28  22 3.28  23 3.28
                             6 3.58  15 3.76  13 3.76  16 3.76  14 3.76   9 3.88   9 3.88  12 3.88
  11  0.000  0.500  0.354-  36 2.33  38 2.33  34 2.33  35 2.33  20 3.28  21 3.28  22 3.28  23 3.28
                             7 3.58  14 3.76  13 3.76  16 3.76  15 3.76   9 3.88   9 3.88  12 3.88
  12  0.500  0.500  0.353-  34 2.33  35 2.33  37 2.33  39 2.33  20 3.28  21 3.28  22 3.28  23 3.28
                             8 3.60  13 3.76  15 3.76  14 3.76  16 3.76  10 3.88  11 3.88  10 3.88
  13  0.249  0.249  0.144-  32 2.32  36 2.32  34 2.33  37 2.33  40 3.25  18 3.26  17 3.26  19 3.27
                             1 3.54   9 3.76  10 3.76  11 3.76  12 3.76  14 3.86  15 3.86  15 3.90
  14  0.751  0.249  0.144-  36 2.32  33 2.32  35 2.33  37 2.33  40 3.25  18 3.26  17 3.26  19 3.27
                             2 3.54   9 3.76  11 3.76  10 3.76  12 3.76  13 3.86  16 3.86  16 3.90
  15  0.249  0.751  0.144-  32 2.32  38 2.32  39 2.33  34 2.33  40 3.25  17 3.26  18 3.26  19 3.27
                             3 3.54   9 3.76  10 3.76  11 3.76  12 3.76  13 3.86  16 3.86  16 3.90
  16  0.751  0.751  0.144-  33 2.32  38 2.32  35 2.33  39 2.33  40 3.25  18 3.26  17 3.26  19 3.27
                             4 3.54   9 3.76  10 3.76  11 3.76  12 3.76  14 3.86  15 3.86  14 3.90
  17  0.500  0.000  0.000-   3 3.26  15 3.26   4 3.26  13 3.26   1 3.26  16 3.26   2 3.26  14 3.26

  18  0.000  0.500  0.000-   2 3.26  14 3.26   4 3.26  13 3.26   1 3.26  16 3.26  15 3.26   3 3.26

  19  0.500  0.500  0.000-   1 3.27  13 3.27   3 3.27  15 3.27  14 3.27   2 3.27   4 3.27  16 3.27

  20  0.250  0.250  0.500-   5 3.27   9 3.27   7 3.28   6 3.28  10 3.28  11 3.28   8 3.28  12 3.28

  21  0.750  0.250  0.500-   5 3.27   9 3.27   7 3.28   6 3.28  10 3.28  11 3.28   8 3.28  12 3.28

  22  0.250  0.750  0.500-   5 3.27   9 3.27   7 3.28   6 3.28  10 3.28  11 3.28   8 3.28  12 3.28

  23  0.750  0.750  0.500-   5 3.27   9 3.27   7 3.28   6 3.28  10 3.28  11 3.28   8 3.28  12 3.28

  24  0.000  0.249  0.750-   2 2.32   1 2.32   5 2.33   7 2.33
  25  0.500  0.250  0.751-   8 2.33   6 2.33   1 2.33   2 2.33
  26  0.000  0.751  0.750-   4 2.32   3 2.32   5 2.33   7 2.33
  27  0.500  0.750  0.751-   8 2.33   6 2.33   3 2.33   4 2.33
  28  0.249  0.000  0.750-   3 2.32   1 2.32   5 2.33   6 2.33
  29  0.751  0.000  0.750-   4 2.32   2 2.32   5 2.33   6 2.33
  30  0.250  0.500  0.751-   8 2.33   7 2.33   1 2.33   3 2.33
  31  0.750  0.500  0.751-   8 2.33   7 2.33   2 2.33   4 2.33
  32  0.249  0.000  0.250-  15 2.32  13 2.32   9 2.33  10 2.33
  33  0.751  0.000  0.250-  16 2.32  14 2.32   9 2.33  10 2.33
  34  0.250  0.500  0.249-  12 2.33  11 2.33  13 2.33  15 2.33
  35  0.750  0.500  0.249-  12 2.33  11 2.33  14 2.33  16 2.33
  36  0.000  0.249  0.250-  14 2.32  13 2.32   9 2.33  11 2.33
  37  0.500  0.250  0.249-  12 2.33  10 2.33  13 2.33  14 2.33
  38  0.000  0.751  0.250-  16 2.32  15 2.32   9 2.33  11 2.33
  39  0.500  0.750  0.249-  12 2.33  10 2.33  15 2.33  16 2.33
  40  0.000  0.000  0.000-   4 3.25  16 3.25   2 3.25  14 3.25  15 3.25   3 3.25  13 3.25   1 3.25

 
  LATTYP: Found a simple tetragonal cell.
 ALAT       =     7.7617574582
 C/A-ratio  =     1.5781187256
  
  Lattice vectors:
  
 A1 = (   7.7617574582,   0.0000000000,   0.0000000000)
 A2 = (   0.0000000000,   7.7617574582,   0.0000000000)
 A3 = (   0.0000000000,   0.0000000000,  12.2489747883)


Analysis of symmetry for initial positions (statically):
=====================================================================
 Subroutine PRICEL returns:
 Original cell was already a primitive cell.
 

 Routine SETGRP: Setting up the symmetry group for a 
 simple tetragonal supercell.


 Subroutine GETGRP returns: Found 16 space group operations
 (whereof 16 operations were pure point group operations)
 out of a pool of 16 trial point group operations.


The static configuration has the point symmetry D_4h.


Analysis of symmetry for dynamics (positions and initial velocities):
=====================================================================
 Subroutine PRICEL returns:
 Original cell was already a primitive cell.
 

 Routine SETGRP: Setting up the symmetry group for a 
 simple tetragonal supercell.


 Subroutine GETGRP returns: Found 16 space group operations
 (whereof 16 operations were pure point group operations)
 out of a pool of 16 trial point group operations.


The dynamic configuration has the point symmetry D_4h.


 Subroutine INISYM returns: Found 16 space group operations
 (whereof 16 operations are pure point group operations),
 and found     1 'primitive' translations


----------------------------------------------------------------------------------------

                                     Primitive cell                                     

  volume of cell :     737.9380

  direct lattice vectors                    reciprocal lattice vectors
     7.761757458  0.000000000  0.000000000     0.128836801  0.000000000  0.000000000
     0.000000000  7.761757458  0.000000000     0.000000000  0.128836801  0.000000000
     0.000000000  0.000000000 12.248974788     0.000000000  0.000000000  0.081639486

  length of vectors
     7.761757458  7.761757458 12.248974788     0.128836801  0.128836801  0.081639486

  position of ions in fractional coordinates (direct lattice)
     0.248842066  0.248842066  0.855701556
     0.751157934  0.248842066  0.855701556
     0.248842066  0.751157934  0.855701556
     0.751157934  0.751157934  0.855701556
     0.000000000  0.000000000  0.645260801
     0.500000000  0.000000000  0.646086571
     0.000000000  0.500000000  0.646086571
     0.500000000  0.500000000  0.647005621
     0.000000000  0.000000000  0.354739199
     0.500000000  0.000000000  0.353913429
     0.000000000  0.500000000  0.353913429
     0.500000000  0.500000000  0.352994379
     0.248842066  0.248842066  0.144298444
     0.751157934  0.248842066  0.144298444
     0.248842066  0.751157934  0.144298444
     0.751157934  0.751157934  0.144298444
     0.500000000  0.000000000  0.000000000
     0.000000000  0.500000000  0.000000000
     0.500000000  0.500000000  0.000000000
     0.250277744  0.250277744  0.500000000
     0.749722256  0.250277744  0.500000000
     0.250277744  0.749722256  0.500000000
     0.749722256  0.749722256  0.500000000
     0.000000000  0.249480754  0.750397614
     0.500000000  0.249615170  0.751459145
     0.000000000  0.750519246  0.750397614
     0.500000000  0.750384830  0.751459145
     0.249480754  0.000000000  0.750397614
     0.750519246  0.000000000  0.750397614
     0.249615170  0.500000000  0.751459145
     0.750384830  0.500000000  0.751459145
     0.249480754  0.000000000  0.249602386
     0.750519246  0.000000000  0.249602386
     0.249615170  0.500000000  0.248540855
     0.750384830  0.500000000  0.248540855
     0.000000000  0.249480754  0.249602386
     0.500000000  0.249615170  0.248540855
     0.000000000  0.750519246  0.249602386
     0.500000000  0.750384830  0.248540855
     0.000000000  0.000000000  0.000000000

  ion indices of the primitive-cell ions
   primitive index   ion index
                 1           1
                 2           2
                 3           3
                 4           4
                 5           5
                 6           6
                 7           7
                 8           8
                 9           9
                10          10
                11          11
                12          12
                13          13
                14          14
                15          15
                16          16
                17          17
                18          18
                19          19
                20          20
                21          21
                22          22
                23          23
                24          24
                25          25
                26          26
                27          27
                28          28
                29          29
                30          30
                31          31
                32          32
                33          33
                34          34
                35          35
                36          36
                37          37
                38          38
                39          39
                40          40

----------------------------------------------------------------------------------------

 
 
 KPOINTS: K-Spacing Value to Generate K-Mesh: 0.03

Automatic generation of k-mesh.
 Grid dimensions read from file:
 generate k-points for:    4    4    3

 Generating k-lattice:

  Cartesian coordinates                     Fractional coordinates (reciprocal lattice)
     0.032209200  0.000000000  0.000000000     0.250000000  0.000000000  0.000000000
     0.000000000  0.032209200  0.000000000     0.000000000  0.250000000  0.000000000
     0.000000000  0.000000000  0.027213162     0.000000000  0.000000000  0.333333333

  Length of vectors
     0.032209200  0.032209200  0.027213162

  Shift w.r.t. Gamma in fractional coordinates (k-lattice)
     0.000000000  0.000000000  0.000000000

 
 Subroutine IBZKPT returns following result:
 ===========================================
 
 Found     12 irreducible k-points:
 
 Following reciprocal coordinates:
            Coordinates               Weight
  0.000000  0.000000  0.000000      1.000000
  0.250000  0.000000  0.000000      4.000000
  0.500000  0.000000  0.000000      2.000000
  0.250000  0.250000  0.000000      4.000000
  0.500000  0.250000  0.000000      4.000000
  0.500000  0.500000  0.000000      1.000000
  0.000000  0.000000  0.333333      2.000000
  0.250000  0.000000  0.333333      8.000000
  0.500000  0.000000  0.333333      4.000000
  0.250000  0.250000  0.333333      8.000000
  0.500000  0.250000  0.333333      8.000000
  0.500000  0.500000  0.333333      2.000000
 
 Following cartesian coordinates:
            Coordinates               Weight
  0.000000  0.000000  0.000000      1.000000
  0.031887  0.000000  0.000000      4.000000
  0.063774  0.000000  0.000000      2.000000
  0.031887  0.031887  0.000000      4.000000
  0.063774  0.031887  0.000000      4.000000
  0.063774  0.063774  0.000000      1.000000
  0.000000  0.000000  0.026941      2.000000
  0.031887  0.000000  0.026941      8.000000
  0.063774  0.000000  0.026941      4.000000
  0.031887  0.031887  0.026941      8.000000
  0.063774  0.031887  0.026941      8.000000
  0.063774  0.063774  0.026941      2.000000
 


--------------------------------------------------------------------------------------------------------




 Dimension of arrays:
   k-points           NKPTS =     12   k-points in BZ     NKDIM =     12   number of bands    NBANDS=    232
   number of dos      NEDOS =    301   number of ions     NIONS =     40
   non local maximal  LDIM  =      6   non local SUM 2l+1 LMDIM =     18
   total plane-waves  NPLWV = 345600
   max r-space proj   IRMAX =      1   max aug-charges    IRDMAX= 165759
   dimension x,y,z NGX =    60 NGY =   60 NGZ =   96
   dimension x,y,z NGXF=   120 NGYF=  120 NGZF=  192
   support grid    NGXF=   240 NGYF=  240 NGZF=  384
   ions per type =              16   7  16   1
   NGX,Y,Z   is equivalent  to a cutoff of  12.85, 12.85, 13.03 a.u.
   NGXF,Y,Z  is equivalent  to a cutoff of  25.70, 25.70, 26.06 a.u.

 SYSTEM =  unknown system                          
 POSCAR =  generated by phonopy                    

 Startparameter for this run:
   NWRITE =      2    write-flag & timer
   PREC   = accura    normal or accurate (medium, high low for compatibility)
   ISTART =      0    job   : 0-new  1-cont  2-samecut
   ICHARG =      2    charge: 1-file 2-atom 10-const
   ISPIN  =      1    spin polarized calculation?
   LNONCOLLINEAR =      F non collinear calculations
   LSORBIT =      F    spin-orbit coupling
   INIWAV =      1    electr: 0-lowe 1-rand  2-diag
   LASPH  =      F    aspherical Exc in radial PAW
 Electronic Relaxation 1
   ENCUT  =  520.0 eV  38.22 Ry    6.18 a.u.  14.43 14.43 22.77*2*pi/ulx,y,z
   ENINI  =  520.0     initial cutoff
   ENAUG  =  605.4 eV  augmentation charge cutoff
   NELM   =     60;   NELMIN=  5; NELMDL= -5     # of ELM steps 
   EDIFF  = 0.1E-07   stopping-criterion for ELM
   LREAL  =      F    real-space projection
   NLSPLINE    = F    spline interpolate recip. space projectors
   LCOMPAT=      F    compatible to vasp.4.4
   GGA_COMPAT  = T    GGA compatible to vasp.4.4-vasp.4.6
   LMAXPAW     = -100 max onsite density
   LMAXMIX     =    2 max onsite mixed and CHGCAR
   VOSKOWN=      0    Vosko Wilk Nusair interpolation
   ROPT   =    0.00000   0.00000   0.00000   0.00000
 Ionic relaxation
   EDIFFG = -.1E-04   stopping-criterion for IOM
   NSW    =    100    number of steps for IOM
   NBLOCK =      1;   KBLOCK =    100    inner block; outer block 
   IBRION =      2    ionic relax: 0-MD 1-quasi-New 2-CG
   NFREE  =      1    steps in history (QN), initial steepest desc. (CG)
   ISIF   =      2    stress and relaxation
   IWAVPR =     11    prediction:  0-non 1-charg 2-wave 3-comb
   ISYM   =      2    0-nonsym 1-usesym 2-fastsym
   LCORR  =      T    Harris-Foulkes like correction to forces

   POTIM  = 0.5000    time-step for ionic-motion
   TEIN   =    0.0    initial temperature
   TEBEG  =    0.0;   TEEND  =   0.0 temperature during run
   SMASS  =  -3.00    Nose mass-parameter (am)
   estimated Nose-frequenzy (Omega)   =  0.10E-29 period in steps = 0.13E+47 mass=  -0.138E-26a.u.
   SCALEE = 1.0000    scale energy and forces
   NPACO  =    256;   APACO  = 10.0  distance and # of slots for P.C.
   PSTRESS=    0.0 pullay stress

  Mass of Ions in am
   POMASS = 208.98 78.96 16.00 32.07
  Ionic Valenz
   ZVAL   =  15.00  6.00  6.00  6.00
  Atomic Wigner-Seitz radii
   RWIGS  =  -1.00 -1.00 -1.00 -1.00
  virtual crystal weights 
   VCA    =   1.00  1.00  1.00  1.00
   NELECT =     384.0000    total number of electrons
   NUPDOWN=      -1.0000    fix difference up-down

 DOS related values:
   EMIN   =  10.00;   EMAX   =-10.00  energy-range for DOS
   EFERMI =   0.00;   METHOD = LEGACY      
   ISMEAR =     0;   SIGMA  =   0.05  broadening in eV -4-tet -1-fermi 0-gaus

 Electronic relaxation 2 (details)
   IALGO  =     38    algorithm
   LDIAG  =      T    sub-space diagonalisation (order eigenvalues)
   LSUBROT=      F    optimize rotation matrix (better conditioning)
   TURBO    =      0    0=normal 1=particle mesh
   IRESTART =      0    0=no restart 2=restart with 2 vectors
   NREBOOT  =      0    no. of reboots
   NMIN     =      0    reboot dimension
   EREF     =   0.00    reference energy to select bands
   IMIX   =      4    mixing-type and parameters
     AMIX     =   0.40;   BMIX     =  1.00
     AMIX_MAG =   1.60;   BMIX_MAG =  1.00
     AMIN     =   0.10
     WC   =   100.;   INIMIX=   1;  MIXPRE=   1;  MAXMIX= -45

 Intra band minimization:
   WEIMIN = 0.0010     energy-eigenvalue tresh-hold
   EBREAK =  0.11E-10  absolut break condition
   DEPER  =   0.30     relativ break condition  

   TIME   =   0.40     timestep for ELM

  volume/ion in A,a.u.               =      18.45       124.50
  Fermi-wavevector in a.u.,A,eV,Ry     =   1.316776  2.488346 23.591133  1.733899
  Thomas-Fermi vector in A             =   2.446864
 
 Write flags
   LWAVE        =      F    write WAVECAR
   LDOWNSAMPLE  =      F    k-point downsampling of WAVECAR
   LCHARG       =      F    write CHGCAR
   LVTOT        =      F    write LOCPOT, total local potential
   LVHAR        =      F    write LOCPOT, Hartree potential only
   WRT_POTENTIAL= false  ! write potential to hdf5 file
   LELF         =      F    write electronic localiz. function (ELF)
   LORBIT       =      0    0 simple, 1 ext, 2 COOP (PROOUT), +10 PAW based schemes


 Dipole corrections
   LMONO      =      F    monopole corrections only (constant potential shift)
   LDIPOL     =      F    correct potential (dipole corrections)
   IDIPOL     =      0    1-x, 2-y, 3-z, 4-all directions 
   EPSILON    =  1.0000000 bulk dielectric constant
   LVACPOTAV  =      F  vacuum potentials using an averaging scheme for the charge density
   VACPOTFLAT =  0.1000000 required flatness to determine vacuum potential
 Exchange correlation treatment:
   GGA     = PE    functional components
   XC_C    = 1    coefficients multiplying the functional components
   LIBXC   =     F    Libxc                    
   VOSKOWN =     0    Vosko Wilk Nusair interpolation
   LHFCALC =     F    Hartree Fock is set to
   LHFONE  =     F    Hartree Fock one center treatment
   AEXX    =    0.0000 exact exchange contribution

 Parameters of functionals:
   PE:
     No parameter
 
 Van der Waals corrections
   IVDW    =     0    specifies the selected vdW correction

 Linear response parameters
   LEPSILON=     F    determine dielectric tensor
   LRPA    =     F    only Hartree local field effects (RPA)
   LNABLA  =     F    use nabla operator in PAW spheres
   LVEL    =     F    velocity operator in full k-point grid
   CSHIFT  =0.1000    complex shift for real part using Kramers Kronig
   OMEGAMAX=  -1.0    maximum frequency
   DEG_THRESHOLD= 0.2000000E-02 threshold for treating states as degnerate
   RTIME   =   -0.100 relaxation time in fs
  (WPLASMAI=    0.000 imaginary part of plasma frequency in eV, 0.658/RTIME)
   DFIELD  = 0.0000000 0.0000000 0.0000000 field for delta impulse in time
 
  Optional k-point grid parameters
   LKPOINTS_OPT  =     F    use optional k-point grid
   KPOINTS_OPT_MODE=     1    mode for optional k-point grid
 
 Orbital magnetization related:
   ORBITALMAG=     F  switch on orbital magnetization
   LCHIMAG   =     F  perturbation theory with respect to B field
   DQ        =  0.001000  dq finite difference perturbation B field
   LLRAUG    =     F  two centre corrections for induced B field
   LBONE     =     F  B-component reconstruction in AE one-centre
   LVGVCALC  =     T  calculate vGv susceptibility
   LVGVAPPL  =     F  apply vGv susceptibility instead of pGv for G=0

 Random number generation:
   RANDOM_GENERATOR = DEFAULT
   PCG_SEED         = not used


--------------------------------------------------------------------------------------------------------


 conjugate gradient relaxation of ions
 charge density and potential will be updated during run
 non-spin polarized calculation
 Variant of blocked Davidson
 Davidson routine will perform the subspace rotation
 perform sub-space diagonalisation
    after iterative eigenvector-optimisation
 modified Broyden-mixing scheme, WC =      100.0
 initial mixing is a Kerker type mixing with AMIX =  0.4000 and BMIX =      1.0000
 Hartree-type preconditioning will be used
 using additional bands           40
 reciprocal scheme for non local part
 use partial core corrections
 calculate Harris-corrections to forces 
   (improved forces if not selfconsistent)
 use gradient corrections 
 use of overlap-Matrix (Vanderbilt PP)
 Gauss-broadening in eV      SIGMA  =   0.05


--------------------------------------------------------------------------------------------------------


  energy-cutoff  :      520.00
  volume of cell :      737.94
      direct lattice vectors                 reciprocal lattice vectors
     7.761757458  0.000000000  0.000000000     0.128836801  0.000000000  0.000000000
     0.000000000  7.761757458  0.000000000     0.000000000  0.128836801  0.000000000
     0.000000000  0.000000000 12.248974788     0.000000000  0.000000000  0.081639486

  length of vectors
     7.761757458  7.761757458 12.248974788     0.128836801  0.128836801  0.081639486


 
 k-points in units of 2pi/SCALE and weight: K-Spacing Value to Generate K-Mesh: 0.03
   0.00000000  0.00000000  0.00000000       0.021
   0.03188711  0.00000000  0.00000000       0.083
   0.06377422  0.00000000  0.00000000       0.042
   0.03188711  0.03188711  0.00000000       0.083
   0.06377422  0.03188711  0.00000000       0.083
   0.06377422  0.06377422  0.00000000       0.021
   0.00000000  0.00000000  0.02694103       0.042
   0.03188711  0.00000000  0.02694103       0.167
   0.06377422  0.00000000  0.02694103       0.083
   0.03188711  0.03188711  0.02694103       0.167
   0.06377422  0.03188711  0.02694103       0.167
   0.06377422  0.06377422  0.02694103       0.042
 
 k-points in reciprocal lattice and weights: K-Spacing Value to Generate K-Mesh: 0.03
   0.00000000  0.00000000  0.00000000       0.021
   0.25000000  0.00000000  0.00000000       0.083
   0.50000000  0.00000000  0.00000000       0.042
   0.25000000  0.25000000  0.00000000       0.083
   0.50000000  0.25000000  0.00000000       0.083
   0.50000000  0.50000000  0.00000000       0.021
   0.00000000  0.00000000  0.33333333       0.042
   0.25000000  0.00000000  0.33333333       0.167
   0.50000000  0.00000000  0.33333333       0.083
   0.25000000  0.25000000  0.33333333       0.167
   0.50000000  0.25000000  0.33333333       0.167
   0.50000000  0.50000000  0.33333333       0.042
 
 position of ions in fractional coordinates (direct lattice) 
   0.24884207  0.24884207  0.85570156
   0.75115793  0.24884207  0.85570156
   0.24884207  0.75115793  0.85570156
   0.75115793  0.75115793  0.85570156
   0.00000000  0.00000000  0.64526080
   0.50000000  0.00000000  0.64608657
   0.00000000  0.50000000  0.64608657
   0.50000000  0.50000000  0.64700562
   0.00000000  0.00000000  0.35473920
   0.50000000  0.00000000  0.35391343
   0.00000000  0.50000000  0.35391343
   0.50000000  0.50000000  0.35299438
   0.24884207  0.24884207  0.14429844
   0.75115793  0.24884207  0.14429844
   0.24884207  0.75115793  0.14429844
   0.75115793  0.75115793  0.14429844
   0.50000000  0.00000000  0.00000000
   0.00000000  0.50000000  0.00000000
   0.50000000  0.50000000  0.00000000
   0.25027774  0.25027774  0.50000000
   0.74972226  0.25027774  0.50000000
   0.25027774  0.74972226  0.50000000
   0.74972226  0.74972226  0.50000000
   0.00000000  0.24948075  0.75039761
   0.50000000  0.24961517  0.75145914
   0.00000000  0.75051925  0.75039761
   0.50000000  0.75038483  0.75145914
   0.24948075  0.00000000  0.75039761
   0.75051925  0.00000000  0.75039761
   0.24961517  0.50000000  0.75145914
   0.75038483  0.50000000  0.75145914
   0.24948075  0.00000000  0.24960239
   0.75051925  0.00000000  0.24960239
   0.24961517  0.50000000  0.24854086
   0.75038483  0.50000000  0.24854086
   0.00000000  0.24948075  0.24960239
   0.50000000  0.24961517  0.24854086
   0.00000000  0.75051925  0.24960239
   0.50000000  0.75038483  0.24854086
   0.00000000  0.00000000  0.00000000
 
 position of ions in cartesian coordinates  (Angst):
   1.93145176  1.93145176 10.48146678
   5.83030570  1.93145176 10.48146678
   1.93145176  5.83030570 10.48146678
   5.83030570  5.83030570 10.48146678
   0.00000000  0.00000000  7.90378328
   3.88087873  0.00000000  7.91389812
   0.00000000  3.88087873  7.91389812
   3.88087873  3.88087873  7.92515554
   0.00000000  0.00000000  4.34519151
   3.88087873  0.00000000  4.33507667
   0.00000000  3.88087873  4.33507667
   3.88087873  3.88087873  4.32381925
   1.93145176  1.93145176  1.76750800
   5.83030570  1.93145176  1.76750800
   1.93145176  5.83030570  1.76750800
   5.83030570  5.83030570  1.76750800
   3.88087873  0.00000000  0.00000000
   0.00000000  3.88087873  0.00000000
   3.88087873  3.88087873  0.00000000
   1.94259514  1.94259514  6.12448739
   5.81916231  1.94259514  6.12448739
   1.94259514  5.81916231  6.12448739
   5.81916231  5.81916231  6.12448739
   0.00000000  1.93640910  9.19160146
   3.88087873  1.93745241  9.20460412
   0.00000000  5.82534836  9.19160146
   3.88087873  5.82430505  9.20460412
   1.93640910  0.00000000  9.19160146
   5.82534836  0.00000000  9.19160146
   1.93745241  3.88087873  9.20460412
   5.82430505  3.88087873  9.20460412
   1.93640910  0.00000000  3.05737333
   5.82534836  0.00000000  3.05737333
   1.93745241  3.88087873  3.04437067
   5.82430505  3.88087873  3.04437067
   0.00000000  1.93640910  3.05737333
   3.88087873  1.93745241  3.04437067
   0.00000000  5.82534836  3.05737333
   3.88087873  5.82430505  3.04437067
   0.00000000  0.00000000  0.00000000
 


--------------------------------------------------------------------------------------------------------


 k-point     1 :   0.0000 0.0000 0.0000  plane waves:   19845
 k-point     2 :   0.2500 0.0000 0.0000  plane waves:   19865
 k-point     3 :   0.5000 0.0000 0.0000  plane waves:   19808
 k-point     4 :   0.2500 0.2500 0.0000  plane waves:   19864
 k-point     5 :   0.5000 0.2500 0.0000  plane waves:   19890
 k-point     6 :   0.5000 0.5000 0.0000  plane waves:   19864
 k-point     7 :   0.0000 0.0000 0.3333  plane waves:   19922
 k-point     8 :   0.2500 0.0000 0.3333  plane waves:   19893
 k-point     9 :   0.5000 0.0000 0.3333  plane waves:   19860
 k-point    10 :   0.2500 0.2500 0.3333  plane waves:   19876
 k-point    11 :   0.5000 0.2500 0.3333  plane waves:   19856
 k-point    12 :   0.5000 0.5000 0.3333  plane waves:   19856

 maximum and minimum number of plane-waves per node :      2238     2168

 maximum number of plane-waves:     19922
 maximum index in each direction: 
   IXMAX=   14   IYMAX=   14   IZMAX=   22
   IXMIN=  -14   IYMIN=  -14   IZMIN=  -23


 parallel 3D FFT for wavefunctions:
    minimum data exchange during FFTs selected (reduces bandwidth)
 parallel 3D FFT for charge:
    minimum data exchange during FFTs selected (reduces bandwidth)


 total amount of memory used by VASP MPI-rank0    93931. kBytes
=======================================================================

   base      :      30000. kBytes
   nonl-proj :      16886. kBytes
   fftplans  :      13003. kBytes
   grid      :       8308. kBytes
   one-center:         77. kBytes
   wavefun   :      25657. kBytes
 
     INWAV:  cpu time      0.0000: real time      0.0000
 Broyden mixing: mesh for mixing (old mesh)
   NGX = 29   NGY = 29   NGZ = 45
  (NGX  =120   NGY  =120   NGZ  =192)
  gives a total of  37845 points

 initial charge density was supplied:
 charge density of overlapping atoms calculated
 number of electron     384.0000000 magnetization 
 keeping initial charge density in first step


--------------------------------------------------------------------------------------------------------


 Maximum index for augmentation-charges         5354 (set IRDMAX)


--------------------------------------------------------------------------------------------------------


 First call to EWALD:  gamma=   0.196
 Maximum number of real-space cells 3x 3x 2
 Maximum number of reciprocal cells 2x 2x 4

    FEWALD:  cpu time      0.0035: real time      0.0035


--------------------------------------- Ionic step        1  -------------------------------------------




--------------------------------------- Iteration      1(   1)  ---------------------------------------


    POTLOK:  cpu time      0.1801: real time      0.1801
    SETDIJ:  cpu time      0.6972: real time      0.6975
     EDDAV:  cpu time     31.7149: real time     31.7215
       DOS:  cpu time      0.0013: real time      0.0013
    --------------------------------------------
      LOOP:  cpu time     32.5935: real time     32.6005

 eigenvalue-minimisations  :  5568
 total energy-change (2. order) : 0.5703463E+04  (-0.1749273E+05)
 number of electron     384.0000000 magnetization 
 augmentation part      384.0000000 magnetization 

 Free energy of the ion-electron system (eV)
  ---------------------------------------------------
  alpha Z        PSCENC =      1368.89029853
  Ewald energy   TEWEN  =    -29869.80568309
  -Hartree energ DENC   =    -11133.81766313
  -exchange      EXHF   =         0.00000000
  -V(xc)+E(xc)   XCENC  =      1237.14192160
  PAW double counting   =     34040.00696010   -33495.80632930
  entropy T*S    EENTRO =        -0.00668727
  eigenvalues    EBANDS =      3215.20786770
  atomic energy  EATOM  =     40341.65184589
  Solvation  Ediel_sol  =         0.00000000
  ---------------------------------------------------
  free energy    TOTEN  =      5703.46253104 eV

  energy without entropy =     5703.46921831  energy(sigma->0) =     5703.46587467


--------------------------------------------------------------------------------------------------------




--------------------------------------- Iteration      1(   2)  ---------------------------------------


     EDDAV:  cpu time     31.7257: real time     31.7395
       DOS:  cpu time      0.0014: real time      0.0015
    --------------------------------------------
      LOOP:  cpu time     31.7271: real time     31.7410

 eigenvalue-minimisations  :  5568
 total energy-change (2. order) :-0.4716814E+04  (-0.4578292E+04)
 number of electron     384.0000000 magnetization 
 augmentation part      384.0000000 magnetization 

 Free energy of the ion-electron system (eV)
  ---------------------------------------------------
  alpha Z        PSCENC =      1368.89029853
  Ewald energy   TEWEN  =    -29869.80568309
  -Hartree energ DENC   =    -11133.81766313
  -exchange      EXHF   =         0.00000000
  -V(xc)+E(xc)   XCENC  =      1237.14192160
  PAW double counting   =     34040.00696010   -33495.80632930
  entropy T*S    EENTRO =        -0.01364229
  eigenvalues    EBANDS =     -1501.59881591
  atomic energy  EATOM  =     40341.65184589
  Solvation  Ediel_sol  =         0.00000000
  ---------------------------------------------------
  free energy    TOTEN  =       986.64889241 eV

  energy without entropy =      986.66253470  energy(sigma->0) =      986.65571355


--------------------------------------------------------------------------------------------------------




--------------------------------------- Iteration      1(   3)  ---------------------------------------


     EDDAV:  cpu time     34.3555: real time     34.3689
       DOS:  cpu time      0.0015: real time      0.0016
    --------------------------------------------
      LOOP:  cpu time     34.3570: real time     34.3706

 eigenvalue-minimisations  :  6224
 total energy-change (2. order) :-0.1095419E+04  (-0.1019583E+04)
 number of electron     384.0000000 magnetization 
 augmentation part      384.0000000 magnetization 

 Free energy of the ion-electron system (eV)
  ---------------------------------------------------
  alpha Z        PSCENC =      1368.89029853
  Ewald energy   TEWEN  =    -29869.80568309
  -Hartree energ DENC   =    -11133.81766313
  -exchange      EXHF   =         0.00000000
  -V(xc)+E(xc)   XCENC  =      1237.14192160
  PAW double counting   =     34040.00696010   -33495.80632930
  entropy T*S    EENTRO =        -0.00000006
  eigenvalues    EBANDS =     -2597.03128330
  atomic energy  EATOM  =     40341.65184589
  Solvation  Ediel_sol  =         0.00000000
  ---------------------------------------------------
  free energy    TOTEN  =      -108.76993276 eV

  energy without entropy =     -108.76993269  energy(sigma->0) =     -108.76993272


--------------------------------------------------------------------------------------------------------




--------------------------------------- Iteration      1(   4)  ---------------------------------------


     EDDAV:  cpu time     36.2926: real time     36.2976
       DOS:  cpu time      0.0017: real time      0.0019
    --------------------------------------------
      LOOP:  cpu time     36.2942: real time     36.2995

 eigenvalue-minimisations  :  6704
 total energy-change (2. order) :-0.1283720E+03  (-0.1246242E+03)
 number of electron     384.0000000 magnetization 
 augmentation part      384.0000000 magnetization 

 Free energy of the ion-electron system (eV)
  ---------------------------------------------------
  alpha Z        PSCENC =      1368.89029853
  Ewald energy   TEWEN  =    -29869.80568309
  -Hartree energ DENC   =    -11133.81766313
  -exchange      EXHF   =         0.00000000
  -V(xc)+E(xc)   XCENC  =      1237.14192160
  PAW double counting   =     34040.00696010   -33495.80632930
  entropy T*S    EENTRO =        -0.00000000
  eigenvalues    EBANDS =     -2725.40328140
  atomic energy  EATOM  =     40341.65184589
  Solvation  Ediel_sol  =         0.00000000
  ---------------------------------------------------
  free energy    TOTEN  =      -237.14193079 eV

  energy without entropy =     -237.14193079  energy(sigma->0) =     -237.14193079


--------------------------------------------------------------------------------------------------------




--------------------------------------- Iteration      1(   5)  ---------------------------------------


     EDDAV:  cpu time     35.8222: real time     35.8265
       DOS:  cpu time      0.0013: real time      0.0014
    CHARGE:  cpu time      1.2997: real time      1.3020
    MIXING:  cpu time      0.0064: real time      0.0064
    --------------------------------------------
      LOOP:  cpu time     37.1296: real time     37.1363

 eigenvalue-minimisations  :  6584
 total energy-change (2. order) :-0.5579012E+01  (-0.5502962E+01)
 number of electron     384.0000008 magnetization 
 augmentation part       98.4982208 magnetization 

 Broyden mixing:
  rms(total) = 0.34166E+01    rms(broyden)= 0.34161E+01
  rms(prec ) = 0.43677E+01
  weight for this iteration     100.00

 Free energy of the ion-electron system (eV)
  ---------------------------------------------------
  alpha Z        PSCENC =      1368.89029853
  Ewald energy   TEWEN  =    -29869.80568309
  -Hartree energ DENC   =    -11133.81766313
  -exchange      EXHF   =         0.00000000
  -V(xc)+E(xc)   XCENC  =      1237.14192160
  PAW double counting   =     34040.00696010   -33495.80632930
  entropy T*S    EENTRO =        -0.00000000
  eigenvalues    EBANDS =     -2730.98229338
  atomic energy  EATOM  =     40341.65184589
  Solvation  Ediel_sol  =         0.00000000
  ---------------------------------------------------
  free energy    TOTEN  =      -242.72094276 eV

  energy without entropy =     -242.72094276  energy(sigma->0) =     -242.72094276


--------------------------------------------------------------------------------------------------------




--------------------------------------- Iteration      1(   6)  ---------------------------------------


    POTLOK:  cpu time      0.1758: real time      0.1760
    SETDIJ:  cpu time      0.6945: real time      0.6946
     EDDAV:  cpu time     40.7204: real time     40.7417
       DOS:  cpu time      0.0022: real time      0.0023
    CHARGE:  cpu time      1.2976: real time      1.2992
    MIXING:  cpu time      0.0088: real time      0.0088
    --------------------------------------------
      LOOP:  cpu time     42.8993: real time     42.9226

 eigenvalue-minimisations  :  7808
 total energy-change (2. order) : 0.3417604E+02  (-0.1415981E+02)
 number of electron     384.0000007 magnetization 
 augmentation part       95.2146291 magnetization 

 Broyden mixing:
  rms(total) = 0.13208E+01    rms(broyden)= 0.13194E+01
  rms(prec ) = 0.15814E+01
  weight for this iteration     100.00

 eigenvalues of (default mixing * dielectric matrix)
  average eigenvalue GAMMA=   0.7729
  0.7729

 Free energy of the ion-electron system (eV)
  ---------------------------------------------------
  alpha Z        PSCENC =      1368.89029853
  Ewald energy   TEWEN  =    -29869.80568309
  -Hartree energ DENC   =    -11381.43364223
  -exchange      EXHF   =         0.00000000
  -V(xc)+E(xc)   XCENC  =      1256.81029997
  PAW double counting   =     34752.71634686   -34166.86591674
  entropy T*S    EENTRO =        -0.00000000
  eigenvalues    EBANDS =     -2510.50845027
  atomic energy  EATOM  =     40341.65184589
  Solvation  Ediel_sol  =         0.00000000
  ---------------------------------------------------
  free energy    TOTEN  =      -208.54490107 eV

  energy without entropy =     -208.54490107  energy(sigma->0) =     -208.54490107


--------------------------------------------------------------------------------------------------------




--------------------------------------- Iteration      1(   7)  ---------------------------------------


    POTLOK:  cpu time      0.1755: real time      0.1755
    SETDIJ:  cpu time      0.6942: real time      0.6951
     EDDAV:  cpu time     34.1493: real time     34.1612
       DOS:  cpu time      0.0029: real time      0.0030
    CHARGE:  cpu time      1.3006: real time      1.3006
    MIXING:  cpu time      0.0065: real time      0.0065
    --------------------------------------------
      LOOP:  cpu time     36.3289: real time     36.3419

 eigenvalue-minimisations  :  6168
 total energy-change (2. order) :-0.8316455E-01  (-0.2956484E+01)
 number of electron     384.0000007 magnetization 
 augmentation part       94.9995801 magnetization 

 Broyden mixing:
  rms(total) = 0.81639E+00    rms(broyden)= 0.81639E+00
  rms(prec ) = 0.89446E+00
  weight for this iteration     100.00

 eigenvalues of (default mixing * dielectric matrix)
  average eigenvalue GAMMA=   1.1187
  1.1187  1.1187

 Free energy of the ion-electron system (eV)
  ---------------------------------------------------
  alpha Z        PSCENC =      1368.89029853
  Ewald energy   TEWEN  =    -29869.80568309
  -Hartree energ DENC   =    -11296.11704431
  -exchange      EXHF   =         0.00000000
  -V(xc)+E(xc)   XCENC  =      1253.69233073
  PAW double counting   =     35557.89641889   -34965.15992177
  entropy T*S    EENTRO =        -0.00000000
  eigenvalues    EBANDS =     -2599.67631049
  atomic energy  EATOM  =     40341.65184589
  Solvation  Ediel_sol  =         0.00000000
  ---------------------------------------------------
  free energy    TOTEN  =      -208.62806562 eV

  energy without entropy =     -208.62806562  energy(sigma->0) =     -208.62806562


--------------------------------------------------------------------------------------------------------




--------------------------------------- Iteration      1(   8)  ---------------------------------------


    POTLOK:  cpu time      0.1764: real time      0.1765
    SETDIJ:  cpu time      0.7000: real time      0.7000
     EDDAV:  cpu time     41.8556: real time     41.8602
       DOS:  cpu time      0.0018: real time      0.0019
    CHARGE:  cpu time      1.3015: real time      1.3016
    MIXING:  cpu time      0.0066: real time      0.0066
    --------------------------------------------
      LOOP:  cpu time     44.0419: real time     44.0467

 eigenvalue-minimisations  :  8096
 total energy-change (2. order) :-0.1264655E+00  (-0.5819826E+00)
 number of electron     384.0000007 magnetization 
 augmentation part       95.3347832 magnetization 

 Broyden mixing:
  rms(total) = 0.35716E+00    rms(broyden)= 0.35703E+00
  rms(prec ) = 0.42190E+00
  weight for this iteration     100.00

 eigenvalues of (default mixing * dielectric matrix)
  average eigenvalue GAMMA=   1.3184
  2.2661  0.8445  0.8445

 Free energy of the ion-electron system (eV)
  ---------------------------------------------------
  alpha Z        PSCENC =      1368.89029853
  Ewald energy   TEWEN  =    -29869.80568309
  -Hartree energ DENC   =    -11281.02952616
  -exchange      EXHF   =         0.00000000
  -V(xc)+E(xc)   XCENC  =      1252.77753122
  PAW double counting   =     35984.57706784   -35386.71123332
  entropy T*S    EENTRO =        -0.00000000
  eigenvalues    EBANDS =     -2619.10483203
  atomic energy  EATOM  =     40341.65184589
  Solvation  Ediel_sol  =         0.00000000
  ---------------------------------------------------
  free energy    TOTEN  =      -208.75453111 eV

  energy without entropy =     -208.75453111  energy(sigma->0) =     -208.75453111


--------------------------------------------------------------------------------------------------------




--------------------------------------- Iteration      1(   9)  ---------------------------------------


    POTLOK:  cpu time      0.1763: real time      0.1764
    SETDIJ:  cpu time      0.7006: real time      0.7006
     EDDAV:  cpu time     39.0389: real time     39.0390
       DOS:  cpu time      0.0013: real time      0.0015
    CHARGE:  cpu time      1.3018: real time      1.3020
    MIXING:  cpu time      0.0068: real time      0.0068
    --------------------------------------------
      LOOP:  cpu time     41.2258: real time     41.2262

 eigenvalue-minimisations  :  7392
 total energy-change (2. order) : 0.8317054E-01  (-0.6113909E-01)
 number of electron     384.0000007 magnetization 
 augmentation part       95.0380292 magnetization 

 Broyden mixing:
  rms(total) = 0.14366E+00    rms(broyden)= 0.14364E+00
  rms(prec ) = 0.17035E+00
  weight for this iteration     100.00

 eigenvalues of (default mixing * dielectric matrix)
  average eigenvalue GAMMA=   1.3234
  2.4769  1.1419  0.8374  0.8374

 Free energy of the ion-electron system (eV)
  ---------------------------------------------------
  alpha Z        PSCENC =      1368.89029853
  Ewald energy   TEWEN  =    -29869.80568309
  -Hartree energ DENC   =    -11309.49409211
  -exchange      EXHF   =         0.00000000
  -V(xc)+E(xc)   XCENC  =      1254.62149872
  PAW double counting   =     36401.77691697   -35799.00669569
  entropy T*S    EENTRO =        -0.00000000
  eigenvalues    EBANDS =     -2597.30544979
  atomic energy  EATOM  =     40341.65184589
  Solvation  Ediel_sol  =         0.00000000
  ---------------------------------------------------
  free energy    TOTEN  =      -208.67136057 eV

  energy without entropy =     -208.67136057  energy(sigma->0) =     -208.67136057


--------------------------------------------------------------------------------------------------------




--------------------------------------- Iteration      1(  10)  ---------------------------------------


    POTLOK:  cpu time      0.1761: real time      0.1762
    SETDIJ:  cpu time      0.6991: real time      0.6992
     EDDAV:  cpu time     37.5562: real time     37.5560
       DOS:  cpu time      0.0014: real time      0.0015
    CHARGE:  cpu time      1.3032: real time      1.3036
    MIXING:  cpu time      0.0061: real time      0.0061
    --------------------------------------------
      LOOP:  cpu time     39.7421: real time     39.7426

 eigenvalue-minimisations  :  7024
 total energy-change (2. order) : 0.9252998E-02  (-0.1644534E-01)
 number of electron     384.0000007 magnetization 
 augmentation part       95.0407872 magnetization 

 Broyden mixing:
  rms(total) = 0.36635E-01    rms(broyden)= 0.36619E-01
  rms(prec ) = 0.38561E-01
  weight for this iteration     100.00

 eigenvalues of (default mixing * dielectric matrix)
  average eigenvalue GAMMA=   1.1779
  2.4278  1.0733  0.8378  0.8378  0.7126

 Free energy of the ion-electron system (eV)
  ---------------------------------------------------
  alpha Z        PSCENC =      1368.89029853
  Ewald energy   TEWEN  =    -29869.80568309
  -Hartree energ DENC   =    -11301.87763029
  -exchange      EXHF   =         0.00000000
  -V(xc)+E(xc)   XCENC  =      1254.34720423
  PAW double counting   =     36541.74566095   -35938.79670827
  entropy T*S    EENTRO =        -0.00000000
  eigenvalues    EBANDS =     -2604.81709553
  atomic energy  EATOM  =     40341.65184589
  Solvation  Ediel_sol  =         0.00000000
  ---------------------------------------------------
  free energy    TOTEN  =      -208.66210757 eV

  energy without entropy =     -208.66210757  energy(sigma->0) =     -208.66210757


--------------------------------------------------------------------------------------------------------




--------------------------------------- Iteration      1(  11)  ---------------------------------------


    POTLOK:  cpu time      0.1754: real time      0.1756
    SETDIJ:  cpu time      0.6951: real time      0.6957
     EDDAV:  cpu time     37.8010: real time     37.8274
       DOS:  cpu time      0.0028: real time      0.0029
    CHARGE:  cpu time      1.3019: real time      1.3019
    MIXING:  cpu time      0.0069: real time      0.0069
    --------------------------------------------
      LOOP:  cpu time     39.9830: real time     40.0105

 eigenvalue-minimisations  :  7088
 total energy-change (2. order) :-0.2112721E-02  (-0.2126939E-02)
 number of electron     384.0000007 magnetization 
 augmentation part       95.0513608 magnetization 

 Broyden mixing:
  rms(total) = 0.32598E-01    rms(broyden)= 0.32596E-01
  rms(prec ) = 0.35151E-01
  weight for this iteration     100.00

 eigenvalues of (default mixing * dielectric matrix)
  average eigenvalue GAMMA=   1.3744
  1.9160  1.9160  0.8310  0.8310  1.5886  1.1636

 Free energy of the ion-electron system (eV)
  ---------------------------------------------------
  alpha Z        PSCENC =      1368.89029853
  Ewald energy   TEWEN  =    -29869.80568309
  -Hartree energ DENC   =    -11301.74027148
  -exchange      EXHF   =         0.00000000
  -V(xc)+E(xc)   XCENC  =      1254.35733833
  PAW double counting   =     36518.80457827   -35916.25807408
  entropy T*S    EENTRO =        -0.00000000
  eigenvalues    EBANDS =     -2604.56425267
  atomic energy  EATOM  =     40341.65184589
  Solvation  Ediel_sol  =         0.00000000
  ---------------------------------------------------
  free energy    TOTEN  =      -208.66422029 eV

  energy without entropy =     -208.66422029  energy(sigma->0) =     -208.66422029


--------------------------------------------------------------------------------------------------------




--------------------------------------- Iteration      1(  12)  ---------------------------------------


    POTLOK:  cpu time      0.1764: real time      0.1765
    SETDIJ:  cpu time      0.6964: real time      0.6965
     EDDAV:  cpu time     40.4631: real time     40.4878
       DOS:  cpu time      0.0012: real time      0.0013
    CHARGE:  cpu time      1.3010: real time      1.3011
    MIXING:  cpu time      0.0070: real time      0.0070
    --------------------------------------------
      LOOP:  cpu time     42.6451: real time     42.6701

 eigenvalue-minimisations  :  7752
 total energy-change (2. order) :-0.8584133E-03  (-0.8578789E-03)
 number of electron     384.0000007 magnetization 
 augmentation part       95.0230526 magnetization 

 Broyden mixing:
  rms(total) = 0.17684E-01    rms(broyden)= 0.17679E-01
  rms(prec ) = 0.20813E-01
  weight for this iteration     100.00

 eigenvalues of (default mixing * dielectric matrix)
  average eigenvalue GAMMA=   1.3986
  2.5343  2.3591  0.8170  0.8170  1.1402  1.1402  0.9823

 Free energy of the ion-electron system (eV)
  ---------------------------------------------------
  alpha Z        PSCENC =      1368.89029853
  Ewald energy   TEWEN  =    -29869.80568309
  -Hartree energ DENC   =    -11302.71066506
  -exchange      EXHF   =         0.00000000
  -V(xc)+E(xc)   XCENC  =      1254.46629615
  PAW double counting   =     36494.60661324   -35892.86162301
  entropy T*S    EENTRO =        -0.00000000
  eigenvalues    EBANDS =     -2602.90216136
  atomic energy  EATOM  =     40341.65184589
  Solvation  Ediel_sol  =         0.00000000
  ---------------------------------------------------
  free energy    TOTEN  =      -208.66507871 eV

  energy without entropy =     -208.66507871  energy(sigma->0) =     -208.66507871


--------------------------------------------------------------------------------------------------------




--------------------------------------- Iteration      1(  13)  ---------------------------------------


    POTLOK:  cpu time      0.1770: real time      0.1771
    SETDIJ:  cpu time      0.6945: real time      0.6947
     EDDAV:  cpu time     35.7178: real time     35.7175
       DOS:  cpu time      0.0014: real time      0.0014
    CHARGE:  cpu time      1.3011: real time      1.3014
    MIXING:  cpu time      0.0071: real time      0.0071
    --------------------------------------------
      LOOP:  cpu time     37.8987: real time     37.8991

 eigenvalue-minimisations  :  6560
 total energy-change (2. order) : 0.1597142E-03  (-0.9678112E-04)
 number of electron     384.0000007 magnetization 
 augmentation part       95.0245969 magnetization 

 Broyden mixing:
  rms(total) = 0.78297E-02    rms(broyden)= 0.78293E-02
  rms(prec ) = 0.89385E-02
  weight for this iteration     100.00

 eigenvalues of (default mixing * dielectric matrix)
  average eigenvalue GAMMA=   1.3988
  2.6640  2.4788  1.2206  0.8286  0.8286  0.9695  1.1002  1.1002

 Free energy of the ion-electron system (eV)
  ---------------------------------------------------
  alpha Z        PSCENC =      1368.89029853
  Ewald energy   TEWEN  =    -29869.80568309
  -Hartree energ DENC   =    -11302.16638905
  -exchange      EXHF   =         0.00000000
  -V(xc)+E(xc)   XCENC  =      1254.44463751
  PAW double counting   =     36489.80842548   -35888.33471223
  entropy T*S    EENTRO =        -0.00000000
  eigenvalues    EBANDS =     -2603.15334204
  atomic energy  EATOM  =     40341.65184589
  Solvation  Ediel_sol  =         0.00000000
  ---------------------------------------------------
  free energy    TOTEN  =      -208.66491899 eV

  energy without entropy =     -208.66491899  energy(sigma->0) =     -208.66491899


--------------------------------------------------------------------------------------------------------




--------------------------------------- Iteration      1(  14)  ---------------------------------------


    POTLOK:  cpu time      0.1770: real time      0.1770
    SETDIJ:  cpu time      0.6977: real time      0.6977
     EDDAV:  cpu time     36.1808: real time     36.1823
       DOS:  cpu time      0.0014: real time      0.0015
    CHARGE:  cpu time      1.3022: real time      1.3022
    MIXING:  cpu time      0.0072: real time      0.0072
    --------------------------------------------
      LOOP:  cpu time     38.3663: real time     38.3680

 eigenvalue-minimisations  :  6672
 total energy-change (2. order) : 0.2323044E-04  (-0.2768130E-04)
 number of electron     384.0000007 magnetization 
 augmentation part       95.0279498 magnetization 

 Broyden mixing:
  rms(total) = 0.38084E-02    rms(broyden)= 0.38076E-02
  rms(prec ) = 0.43855E-02
  weight for this iteration     100.00

 eigenvalues of (default mixing * dielectric matrix)
  average eigenvalue GAMMA=   1.3582
  2.5844  2.4010  1.5515  1.1896  1.1896  0.8263  0.8263  0.9732  0.6822

 Free energy of the ion-electron system (eV)
  ---------------------------------------------------
  alpha Z        PSCENC =      1368.89029853
  Ewald energy   TEWEN  =    -29869.80568309
  -Hartree energ DENC   =    -11302.12421986
  -exchange      EXHF   =         0.00000000
  -V(xc)+E(xc)   XCENC  =      1254.43964254
  PAW double counting   =     36485.46124028   -35883.99083984
  entropy T*S    EENTRO =        -0.00000000
  eigenvalues    EBANDS =     -2603.18718022
  atomic energy  EATOM  =     40341.65184589
  Solvation  Ediel_sol  =         0.00000000
  ---------------------------------------------------
  free energy    TOTEN  =      -208.66489576 eV

  energy without entropy =     -208.66489576  energy(sigma->0) =     -208.66489576


--------------------------------------------------------------------------------------------------------




--------------------------------------- Iteration      1(  15)  ---------------------------------------


    POTLOK:  cpu time      0.1772: real time      0.1772
    SETDIJ:  cpu time      0.6981: real time      0.6981
     EDDAV:  cpu time     42.5865: real time     42.5868
       DOS:  cpu time      0.0034: real time      0.0035
    CHARGE:  cpu time      1.3018: real time      1.3019
    MIXING:  cpu time      0.0074: real time      0.0074
    --------------------------------------------
      LOOP:  cpu time     44.7744: real time     44.7750

 eigenvalue-minimisations  :  8272
 total energy-change (2. order) : 0.1583007E-04  (-0.5930309E-05)
 number of electron     384.0000007 magnetization 
 augmentation part       95.0299969 magnetization 

 Broyden mixing:
  rms(total) = 0.14399E-02    rms(broyden)= 0.14390E-02
  rms(prec ) = 0.15283E-02
  weight for this iteration     100.00

 eigenvalues of (default mixing * dielectric matrix)
  average eigenvalue GAMMA=   1.4001
  2.6723  2.5677  1.5349  1.5349  1.1778  0.9444  0.8270  0.8270  0.9577  0.9577

 Free energy of the ion-electron system (eV)
  ---------------------------------------------------
  alpha Z        PSCENC =      1368.89029853
  Ewald energy   TEWEN  =    -29869.80568309
  -Hartree energ DENC   =    -11302.03303111
  -exchange      EXHF   =         0.00000000
  -V(xc)+E(xc)   XCENC  =      1254.43245506
  PAW double counting   =     36484.48317077   -35882.98602467
  entropy T*S    EENTRO =        -0.00000000
  eigenvalues    EBANDS =     -2603.29791130
  atomic energy  EATOM  =     40341.65184589
  Solvation  Ediel_sol  =         0.00000000
  ---------------------------------------------------
  free energy    TOTEN  =      -208.66487993 eV

  energy without entropy =     -208.66487993  energy(sigma->0) =     -208.66487993


--------------------------------------------------------------------------------------------------------




--------------------------------------- Iteration      1(  16)  ---------------------------------------


    POTLOK:  cpu time      0.1775: real time      0.1776
    SETDIJ:  cpu time      0.6963: real time      0.6964
     EDDAV:  cpu time     37.0211: real time     37.0466
       DOS:  cpu time      0.0012: real time      0.0013
    CHARGE:  cpu time      1.2998: real time      1.3003
    MIXING:  cpu time      0.0084: real time      0.0084
    --------------------------------------------
[...]
    168       4.6623      2.00000
    169       4.8856      2.00000
    170       4.8879      2.00000
    171       4.9039      2.00000
    172       4.9039      2.00000
    173       5.0659      2.00000
    174       5.0667      2.00000
    175       5.0783      2.00000
    176       5.0783      2.00000
    177       5.2354      2.00000
    178       5.2354      2.00000
    179       5.2502      2.00000
    180       5.2543      2.00000
    181       5.6563      2.00000
    182       5.6759      2.00000
    183       5.6759      2.00000
    184       5.6978      2.00000
    185       6.1923      2.00000
    186       6.1923      2.00000
    187       6.2157      2.00000
    188       6.2379      2.00000
    189       6.3077      2.00000
    190       6.3077      2.00000
    191       6.3239      2.00000
    192       6.3417      2.00000
    193       8.3935      0.00000
    194       8.4242      0.00000
    195       8.4242      0.00000
    196       8.4587      0.00000
    197       9.1745      0.00000
    198       9.2060      0.00000
    199       9.2060      0.00000
    200       9.2384      0.00000
    201       9.5938      0.00000
    202       9.6036      0.00000
    203       9.6236      0.00000
    204       9.6236      0.00000
    205       9.9122      0.00000
    206       9.9300      0.00000
    207       9.9550      0.00000
    208       9.9550      0.00000
    209      10.2268      0.00000
    210      10.2268      0.00000
    211      10.2718      0.00000
    212      10.2832      0.00000
    213      10.3011      0.00000
    214      10.3087      0.00000
    215      10.3087      0.00000
    216      10.3274      0.00000
    217      11.1752      0.00000
    218      11.1752      0.00000
    219      11.1992      0.00000
    220      11.2049      0.00000
    221      11.2663      0.00000
    222      11.2663      0.00000
    223      11.2691      0.00000
    224      11.2764      0.00000
    225      11.8090      0.00000
    226      11.8406      0.00000
    227      11.8406      0.00000
    228      11.8826      0.00000
    229      11.9016      0.00000
    230      11.9016      0.00000
    231      11.9507      0.00000
    232      11.9533      0.00000


--------------------------------------------------------------------------------------------------------


 soft charge-density along one line, spin component           1
         0         1         2         3         4         5         6         7         8         9
 total charge-density along one line
 
 pseudopotential strength for first ion, spin component:           1
-17.428   0.001   0.001   0.001  -0.000   3.761  -0.000  -0.000
  0.001 -17.411   0.001  -0.001  -0.001  -0.000   3.753  -0.000
  0.001   0.001 -17.436   0.001  -0.000  -0.000  -0.000   3.767
  0.001  -0.001   0.001 -17.411   0.001  -0.000   0.000  -0.000
 -0.000  -0.001  -0.000   0.001 -17.411   0.000   0.001   0.000
  3.761  -0.000  -0.000  -0.000   0.000   5.894   0.000   0.000
 -0.000   3.753  -0.000   0.000   0.001   0.000   5.895   0.000
 -0.000  -0.000   3.767  -0.000   0.000   0.000   0.000   5.894
 -0.000   0.000  -0.000   3.753  -0.001   0.000  -0.000   0.000
  0.000   0.001   0.000  -0.001   3.752   0.000  -0.000   0.000
 -0.000   0.000   0.004   0.000  -0.000   0.000  -0.000   0.004
  0.000  -0.000  -0.005  -0.000   0.000  -0.000   0.000  -0.005
  0.000  -0.017  -0.000  -0.000  -0.000   0.000   0.004   0.000
 -0.000   0.000  -0.020   0.000   0.000  -0.000   0.000   0.003
  0.000  -0.000  -0.000  -0.017   0.000   0.000  -0.000   0.000
  0.000  -0.029  -0.000  -0.000  -0.000   0.000   0.003   0.000
 -0.000   0.000  -0.031   0.000   0.000  -0.000   0.000   0.000
  0.000  -0.000  -0.000  -0.029   0.000   0.000  -0.000   0.000
 total augmentation occupancy for first ion, spin component:           1
  1.999   0.000   0.000   0.000  -0.000  -0.004   0.000   0.000   0.000  -0.000  -0.000  -0.000  -0.000  -0.000  -0.000   0.000
  0.000   1.998  -0.000  -0.000  -0.000   0.000  -0.005   0.000  -0.000  -0.000   0.000   0.000   0.035  -0.000  -0.000  -0.013
  0.000  -0.000   2.000  -0.000  -0.000   0.000   0.000  -0.002   0.000   0.000   0.001   0.001   0.000   0.033   0.000  -0.000
  0.000  -0.000  -0.000   1.998   0.000   0.000  -0.000   0.000  -0.005   0.000   0.000   0.000  -0.000  -0.000   0.035   0.000
 -0.000  -0.000  -0.000   0.000   1.998  -0.000  -0.000   0.000   0.000  -0.006  -0.000  -0.000   0.000  -0.000  -0.000  -0.000
 -0.004   0.000   0.000   0.000  -0.000   0.021   0.000   0.000   0.000  -0.000  -0.000  -0.000   0.002  -0.001   0.002  -0.000
  0.000  -0.005   0.000  -0.000  -0.000   0.000   0.047   0.000  -0.001  -0.000   0.000   0.001  -0.081   0.000  -0.002   0.011
  0.000   0.000  -0.002   0.000   0.000   0.000   0.000   0.016   0.000  -0.000   0.012  -0.004  -0.001   0.006  -0.001   0.000
  0.000  -0.000   0.000  -0.005   0.000   0.000  -0.001   0.000   0.047   0.000   0.000   0.001  -0.002   0.000  -0.081   0.000
 -0.000  -0.000   0.000   0.000  -0.006  -0.000  -0.000  -0.000   0.000   0.053  -0.000   0.000   0.001  -0.000  -0.001  -0.000
 -0.000   0.000   0.001   0.000  -0.000  -0.000   0.000   0.012   0.000  -0.000   2.045  -0.026  -0.001   0.172  -0.001  -0.000
 -0.000   0.000   0.001   0.000  -0.000  -0.000   0.001  -0.004   0.001   0.000  -0.026   0.031   0.001  -0.079   0.001  -0.000
 -0.000   0.035   0.000  -0.000   0.000   0.002  -0.081  -0.001  -0.002   0.001  -0.001   0.001   0.901   0.006  -0.006  -0.083
 -0.000  -0.000   0.033  -0.000  -0.000  -0.001   0.000   0.006   0.000  -0.000   0.172  -0.079   0.006   0.977   0.006  -0.001
 -0.000  -0.000   0.000   0.035  -0.000   0.002  -0.002  -0.001  -0.081  -0.001  -0.001   0.001  -0.006   0.006   0.901   0.001
  0.000  -0.013  -0.000   0.000  -0.000  -0.000   0.011   0.000   0.000  -0.000  -0.000  -0.000  -0.083  -0.001   0.001   0.010
  0.000   0.000  -0.020   0.000   0.000   0.000   0.000  -0.000   0.000   0.000  -0.012   0.008  -0.001  -0.084  -0.001   0.000
  0.000   0.000  -0.000  -0.013   0.000  -0.000   0.000   0.000   0.011   0.000  -0.000  -0.000   0.001  -0.001  -0.083  -0.000


------------------------ aborting loop because EDIFF is reached ----------------------------------------


    CHARGE:  cpu time      1.2985: real time      1.2994
    FORLOC:  cpu time      0.0168: real time      0.0168
    FORNL :  cpu time      6.2062: real time      6.2099
    STRESS:  cpu time     20.0751: real time     20.0905
    FORCOR:  cpu time      0.1780: real time      0.1781
    FORHAR:  cpu time      0.0590: real time      0.0590
    MIXING:  cpu time      0.0050: real time      0.0050
    OFIELD:  cpu time      0.0001: real time      0.0001

  FORCE on cell =-STRESS in cart. coord.  units (eV):
  Direction    XX          YY          ZZ          XY          YZ          ZX
  --------------------------------------------------------------------------------------
  Alpha Z  1368.89030  1368.89030  1368.89030
  Ewald   -8357.99701 -8357.99701-13153.92474    -0.00000    -0.00000     0.00000
  Hartree  5192.47207  5192.47207   917.06991    -0.00000    -0.00000    -0.00000
  E(xc)   -1828.36329 -1828.36329 -1829.82648     0.00000     0.00000    -0.00000
  Local   -5081.57991 -5081.57991  4000.97887    -0.00000     0.00000    -0.00000
  n-local  1582.39243  1589.34027  1593.99261     0.56646    -0.05622     0.12304
  augment  2176.47960  2176.47960  2160.85775    -0.00000     0.00000     0.00000
  Kinetic  4952.84284  4961.19122  4951.71669    -3.71648     0.46207    -0.56611
  Fock        0.00000     0.00000     0.00000     0.00000     0.00000     0.00000
  -------------------------------------------------------------------------------------
  Total      12.78514    12.78514     9.75492     0.00000     0.00000    -0.00000
  in kB      27.75851    27.75851    21.17943     0.00000     0.00000    -0.00000
  external pressure =       25.57 kB  Pullay stress =        0.00 kB


 VOLUME and BASIS-vectors are now :
 -----------------------------------------------------------------------------
  energy-cutoff  :      520.00
  volume of cell :      737.94
      direct lattice vectors                 reciprocal lattice vectors
     7.761757458  0.000000000  0.000000000     0.128836801  0.000000000  0.000000000
     0.000000000  7.761757458  0.000000000     0.000000000  0.128836801  0.000000000
     0.000000000  0.000000000 12.248974788     0.000000000  0.000000000  0.081639486

  length of vectors
     7.761757458  7.761757458 12.248974788     0.128836801  0.128836801  0.081639486


 FORCES acting on ions
    electron-ion (+dipol)            ewald-force                    non-local-force                 convergence-correction
 -----------------------------------------------------------------------------------------------
   -.648E+01 -.648E+01 -.432E+03   0.636E+01 0.636E+01 0.443E+03   0.118E+00 0.118E+00 -.111E+02   -.167E-06 -.167E-06 0.261E-06
   0.648E+01 -.648E+01 -.432E+03   -.636E+01 0.636E+01 0.443E+03   -.118E+00 0.118E+00 -.111E+02   0.167E-06 -.167E-06 0.261E-06
   -.648E+01 0.648E+01 -.432E+03   0.636E+01 -.636E+01 0.443E+03   0.118E+00 -.118E+00 -.111E+02   -.167E-06 0.167E-06 0.261E-06
   0.648E+01 0.648E+01 -.432E+03   -.636E+01 -.636E+01 0.443E+03   -.118E+00 -.118E+00 -.111E+02   0.167E-06 0.167E-06 0.261E-06
   -.580E-12 -.216E-11 0.464E+03   0.264E-11 0.270E-11 -.475E+03   0.866E-18 -.219E-18 0.110E+02   -.743E-11 -.483E-11 -.737E-06
   0.162E-12 0.585E-12 0.462E+03   0.296E-11 0.284E-11 -.473E+03   0.230E-18 0.100E-18 0.109E+02   0.716E-11 -.200E-11 0.106E-06
   -.618E-12 -.386E-11 0.462E+03   0.281E-11 0.293E-11 -.473E+03   0.293E-17 0.135E-18 0.109E+02   -.224E-11 0.397E-11 0.106E-06
   0.114E-12 0.773E-12 0.462E+03   0.298E-11 0.299E-11 -.473E+03   0.296E-17 0.964E-18 0.110E+02   0.219E-11 0.312E-11 0.883E-06
   -.598E-12 0.483E-11 -.464E+03   0.270E-11 0.279E-11 0.475E+03   0.960E-18 -.109E-17 -.110E+02   -.881E-11 -.320E-12 0.737E-06
   0.178E-12 -.164E-11 -.462E+03   0.307E-11 0.271E-11 0.473E+03   0.378E-18 -.640E-19 -.109E+02   0.871E-11 -.165E-11 -.106E-06
   -.564E-12 0.376E-11 -.462E+03   0.267E-11 0.298E-11 0.473E+03   -.124E-17 0.162E-18 -.109E+02   0.148E-11 0.175E-11 -.106E-06
   0.196E-12 0.285E-11 -.462E+03   0.293E-11 0.302E-11 0.473E+03   -.148E-17 0.132E-17 -.110E+02   -.132E-11 0.117E-11 -.883E-06
   -.648E+01 -.648E+01 0.432E+03   0.636E+01 0.636E+01 -.443E+03   0.118E+00 0.118E+00 0.111E+02   -.167E-06 -.167E-06 -.261E-06
   0.648E+01 -.648E+01 0.432E+03   -.636E+01 0.636E+01 -.443E+03   -.118E+00 0.118E+00 0.111E+02   0.167E-06 -.167E-06 -.261E-06
   -.648E+01 0.648E+01 0.432E+03   0.636E+01 -.636E+01 -.443E+03   0.118E+00 -.118E+00 0.111E+02   -.167E-06 0.167E-06 -.261E-06
   0.648E+01 0.648E+01 0.432E+03   -.636E+01 -.636E+01 -.443E+03   -.118E+00 -.118E+00 0.111E+02   0.167E-06 0.167E-06 -.261E-06
   -.126E-11 -.116E-11 0.152E-11   0.639E-11 0.625E-11 0.355E-14   0.136E-28 0.309E-27 0.637E-27   -.210E-11 0.596E-12 -.121E-11
   -.117E-11 0.444E-12 0.586E-12   0.617E-11 0.642E-11 0.213E-13   -.391E-27 0.303E-28 -.223E-27   0.262E-11 -.211E-12 -.380E-12
   -.123E-11 -.179E-11 0.221E-12   0.622E-11 0.627E-11 0.568E-13   0.131E-27 0.248E-27 -.832E-27   -.261E-11 -.117E-12 -.673E-12
   -.206E+01 -.206E+01 -.700E-07   0.207E+01 0.207E+01 -.632E-13   -.103E-01 -.103E-01 -.979E-20   -.224E-06 -.224E-06 0.104E-11
   0.206E+01 -.206E+01 0.247E-11   -.207E+01 0.207E+01 -.383E-13   0.103E-01 -.103E-01 0.801E-20   0.224E-06 -.224E-06 -.299E-13
   -.206E+01 0.206E+01 -.567E-12   0.207E+01 -.207E+01 -.631E-13   -.103E-01 0.103E-01 -.562E-20   -.224E-06 0.224E-06 0.132E-11
   0.206E+01 0.206E+01 0.700E-07   -.207E+01 -.207E+01 -.102E-12   0.103E-01 0.103E-01 0.989E-20   0.224E-06 0.224E-06 0.231E-11
   -.286E-11 -.249E+01 0.881E+01   0.144E-10 0.250E+01 -.896E+01   0.239E-18 -.730E-02 0.146E+00   -.170E-12 -.220E-06 -.403E-07
   -.270E-11 -.189E+01 0.380E+01   0.146E-10 0.189E+01 -.366E+01   0.308E-18 0.477E-02 -.140E+00   0.233E-13 -.232E-06 0.548E-06
   -.285E-11 0.249E+01 0.881E+01   0.145E-10 -.250E+01 -.896E+01   0.226E-18 0.730E-02 0.146E+00   -.242E-11 0.220E-06 -.403E-07
   -.273E-11 0.189E+01 0.380E+01   0.146E-10 -.189E+01 -.366E+01   0.461E-18 -.477E-02 -.140E+00   0.225E-11 0.232E-06 0.548E-06
   -.249E+01 -.351E-11 0.881E+01   0.250E+01 0.143E-10 -.896E+01   -.730E-02 0.228E-18 0.146E+00   -.220E-06 0.511E-12 -.403E-07
   0.249E+01 -.469E-11 0.881E+01   -.250E+01 0.142E-10 -.896E+01   0.730E-02 0.227E-19 0.146E+00   0.220E-06 -.341E-11 -.403E-07
   -.189E+01 -.154E-11 0.380E+01   0.189E+01 0.146E-10 -.366E+01   0.477E-02 -.357E-18 -.140E+00   -.232E-06 0.129E-12 0.548E-06
   0.189E+01 -.291E-11 0.380E+01   -.189E+01 0.146E-10 -.366E+01   -.477E-02 -.100E-18 -.140E+00   0.232E-06 0.187E-11 0.548E-06
   -.249E+01 0.329E-11 -.881E+01   0.250E+01 0.143E-10 0.896E+01   -.730E-02 0.863E-19 -.146E+00   -.220E-06 0.130E-12 0.403E-07
   0.249E+01 -.219E-11 -.881E+01   -.250E+01 0.143E-10 0.896E+01   0.730E-02 0.239E-18 -.146E+00   0.220E-06 0.215E-11 0.403E-07
   -.189E+01 0.759E-14 -.380E+01   0.189E+01 0.146E-10 0.366E+01   0.477E-02 -.452E-18 0.140E+00   -.232E-06 -.735E-12 -.548E-06
   0.189E+01 0.438E-11 -.380E+01   -.189E+01 0.146E-10 0.366E+01   -.477E-02 -.146E-18 0.140E+00   0.232E-06 0.235E-11 -.548E-06
   -.296E-11 -.249E+01 -.881E+01   0.143E-10 0.250E+01 0.896E+01   -.335E-18 -.730E-02 -.146E+00   -.537E-12 -.220E-06 0.403E-07
   -.265E-11 -.189E+01 -.380E+01   0.145E-10 0.189E+01 0.366E+01   -.196E-18 0.477E-02 0.140E+00   0.565E-12 -.232E-06 -.548E-06
   -.250E-11 0.249E+01 -.881E+01   0.145E-10 -.250E+01 0.896E+01   -.278E-18 0.730E-02 -.146E+00   -.112E-11 0.220E-06 0.403E-07
   -.267E-11 0.189E+01 -.380E+01   0.145E-10 -.189E+01 0.366E+01   -.521E-18 -.477E-02 0.140E+00   0.111E-11 0.232E-06 -.548E-06
   -.124E-11 -.124E-11 0.171E-13   0.622E-11 0.625E-11 -.284E-13   0.162E-26 0.164E-26 -.554E-28   0.216E-11 0.645E-12 -.191E-11
 -----------------------------------------------------------------------------------------------
   -.197E-09 -.200E-09 -.103E-09   0.327E-12 -.117E-12 -.142E-12   -.463E-18 -.147E-16 0.180E-14   -.220E-12 -.541E-11 -.400E-11
 
 
 POSITION                                       TOTAL-FORCE (eV/Angst)
 -----------------------------------------------------------------------------------
      1.93145      1.93145     10.48147         0.000004      0.000004     -0.000005
      5.83031      1.93145     10.48147        -0.000004      0.000004     -0.000005
      1.93145      5.83031     10.48147         0.000004     -0.000004     -0.000005
      5.83031      5.83031     10.48147        -0.000004     -0.000004     -0.000005
      0.00000      7.76176      7.90378         0.000000      0.000000      0.000009
      3.88088      0.00000      7.91390         0.000000      0.000000      0.000004
      0.00000      3.88088      7.91390         0.000000     -0.000000      0.000004
      3.88088      3.88088      7.92515         0.000000      0.000000     -0.000002
      0.00000      7.76176      4.34519         0.000000      0.000000     -0.000009
      3.88088      0.00000      4.33508         0.000000      0.000000     -0.000004
      0.00000      3.88088      4.33508         0.000000     -0.000000     -0.000004
      3.88088      3.88088      4.32382         0.000000     -0.000000      0.000002
      1.93145      1.93145      1.76751         0.000004      0.000004      0.000005
      5.83031      1.93145      1.76751        -0.000004      0.000004      0.000005
      1.93145      5.83031      1.76751         0.000004     -0.000004      0.000005
      5.83031      5.83031      1.76751        -0.000004     -0.000004      0.000005
      3.88088      7.76176      0.00000         0.000000      0.000000      0.000000
      7.76176      3.88088      0.00000         0.000000      0.000000      0.000000
      3.88088      3.88088      0.00000         0.000000     -0.000000      0.000000
      1.94260      1.94260      6.12449         0.000001      0.000001      0.000000
      5.81916      1.94260      6.12449        -0.000001      0.000001      0.000000
      1.94260      5.81916      6.12449         0.000001     -0.000001      0.000000
      5.81916      5.81916      6.12449        -0.000001     -0.000001      0.000000
      0.00000      1.93641      9.19160         0.000000      0.000002      0.000001
      3.88088      1.93745      9.20460         0.000000      0.000002     -0.000005
      0.00000      5.82535      9.19160         0.000000     -0.000002      0.000001
      3.88088      5.82430      9.20460         0.000000     -0.000002     -0.000005
      1.93641      0.00000      9.19160         0.000002      0.000000      0.000001
      5.82535      0.00000      9.19160        -0.000002      0.000000      0.000001
      1.93745      3.88088      9.20460         0.000002     -0.000000     -0.000005
      5.82430      3.88088      9.20460        -0.000002      0.000000     -0.000005
      1.93641      7.76176      3.05737         0.000002     -0.000000     -0.000001
      5.82535      0.00000      3.05737        -0.000002     -0.000000     -0.000001
      1.93745      3.88088      3.04437         0.000002      0.000000      0.000005
      5.82430      3.88088      3.04437        -0.000002     -0.000000      0.000005
      0.00000      1.93641      3.05737         0.000000      0.000002     -0.000001
      3.88088      1.93745      3.04437         0.000000      0.000002      0.000005
      7.76176      5.82535      3.05737         0.000000     -0.000002     -0.000001
      3.88088      5.82430      3.04437         0.000000     -0.000002      0.000005
      0.00000      0.00000      0.00000         0.000000     -0.000000      0.000000
 -----------------------------------------------------------------------------------
    total drift:                               -0.000000     -0.000000     -0.000000


--------------------------------------------------------------------------------------------------------



  FREE ENERGIE OF THE ION-ELECTRON SYSTEM (eV)
  ---------------------------------------------------
  free  energy   TOTEN  =      -208.66487791 eV

  energy  without entropy=     -208.66487791  energy(sigma->0) =     -208.66487791
 
 d Force = 0.5235247E-11[ 0.378E-11, 0.669E-11]  d Energy = 0.4110916E-09-0.406E-09
 d Force =-0.6690795E-04[-0.669E-04,-0.669E-04]  d Ewald  =-0.6690799E-04 0.327E-10


--------------------------------------------------------------------------------------------------------


    POTLOK:  cpu time      0.8730: real time      0.8749


--------------------------------------------------------------------------------------------------------




--------------------------------------------------------------------------------------------------------


  
 reached required accuracy - stopping structural energy minimisation
     LOOP+:  cpu time    147.2314: real time    147.3262
    4ORBIT:  cpu time      0.0000: real time      0.0000

 total amount of memory used by VASP MPI-rank0    93931. kBytes
=======================================================================

   base      :      30000. kBytes
   nonl-proj :      16886. kBytes
   fftplans  :      13003. kBytes
   grid      :       8308. kBytes
   one-center:         77. kBytes
   wavefun   :      25657. kBytes
 
  
  
 General timing and accounting informations for this job:
 ========================================================
  
                  Total CPU time used (sec):     2400.023
                            User time (sec):     2393.803
                          System time (sec):        6.220
                         Elapsed time (sec):     2400.825
  
                   Maximum memory used (kb):      197848.
                   Average memory used (kb):          N/A
  
                          Minor page faults:        36649
                          Major page faults:           12
                 Voluntary context switches:          274
