<?xml version="1.0" encoding="ISO-8859-1"?>
<modeling>
 <generator>
  <i name="program" type="string">vasp </i>
  <i name="version" type="string">6.4.3  </i>
  <i name="subversion" type="string">19Mar24 (build Apr 09 2025 20:43:19) complex                          parallel </i>
  <i name="platform" type="string">LinuxIFC </i>
  <i name="date" type="string">2025 04 13 </i>
  <i name="time" type="string">12:27:08 </i>
 </generator>
 <incar>
  <i type="string" name="PREC">Accurate</i>
  <i type="int" name="IALGO">    38</i>
  <i type="logical" name="ADDGRID"> T  </i>
  <i type="int" name="NELMIN">     5</i>
  <i type="int" name="IBRION">     2</i>
  <i name="EDIFF">      0.00000001</i>
  <i name="EDIFFG">     -0.00001000</i>
  <i type="int" name="NSW">   100</i>
  <i type="int" name="ISIF">     2</i>
  <i name="ENCUT">    520.00000000</i>
  <i type="logical" name="LREAL"> F  </i>
  <i type="int" name="ISMEAR">     0</i>
  <i name="SIGMA">      0.05000000</i>
  <i type="logical" name="LWAVE"> F  </i>
  <i type="logical" name="LCHARG"> F  </i>
 </incar>
 <primitive_cell>
  <structure name="primitive_cell" >
   <crystal>
    <varray name="basis" >
     <v>       7.76175746       0.00000000       0.00000000 </v>
     <v>       0.00000000       7.76175746       0.00000000 </v>
     <v>       0.00000000       0.00000000      12.24897479 </v>
    </varray>
    <i name="volume">    737.93800204 </i>
    <varray name="rec_basis" >
     <v>       0.12883680       0.00000000       0.00000000 </v>
     <v>       0.00000000       0.12883680       0.00000000 </v>
     <v>       0.00000000       0.00000000       0.08163949 </v>
    </varray>
   </crystal>
   <varray name="positions" >
    <v>       0.24884207       0.24884207       0.85570156 </v>
    <v>       0.75115793       0.24884207       0.85570156 </v>
    <v>       0.24884207       0.75115793       0.85570156 </v>
    <v>       0.75115793       0.75115793       0.85570156 </v>
    <v>       0.00000000       0.00000000       0.64526080 </v>
    <v>       0.50000000       0.00000000       0.64608657 </v>
    <v>       0.00000000       0.50000000       0.64608657 </v>
    <v>       0.50000000       0.50000000       0.64700562 </v>
    <v>       0.00000000       0.00000000       0.35473920 </v>
    <v>       0.50000000       0.00000000       0.35391343 </v>
    <v>       0.00000000       0.50000000       0.35391343 </v>
    <v>       0.50000000       0.50000000       0.35299438 </v>
    <v>       0.24884207       0.24884207       0.14429844 </v>
    <v>       0.75115793       0.24884207       0.14429844 </v>
    <v>       0.24884207       0.75115793       0.14429844 </v>
    <v>       0.75115793       0.75115793       0.14429844 </v>
    <v>       0.50000000       0.00000000       0.00000000 </v>
    <v>       0.00000000       0.50000000       0.00000000 </v>
    <v>       0.50000000       0.50000000       0.00000000 </v>
    <v>       0.25027774       0.25027774       0.50000000 </v>
    <v>       0.74972226       0.25027774       0.50000000 </v>
    <v>       0.25027774       0.74972226       0.50000000 </v>
    <v>       0.74972226       0.74972226       0.50000000 </v>
    <v>       0.00000000       0.24948075       0.75039761 </v>
    <v>       0.50000000       0.24961517       0.75145914 </v>
    <v>       0.00000000       0.75051925       0.75039761 </v>
    <v>       0.50000000       0.75038483       0.75145914 </v>
    <v>       0.24948075       0.00000000       0.75039761 </v>
    <v>       0.75051925       0.00000000       0.75039761 </v>
    <v>       0.24961517       0.50000000       0.75145914 </v>
    <v>       0.75038483       0.50000000       0.75145914 </v>
    <v>       0.24948075       0.00000000       0.24960239 </v>
    <v>       0.75051925       0.00000000       0.24960239 </v>
    <v>       0.24961517       0.50000000       0.24854086 </v>
    <v>       0.75038483       0.50000000       0.24854086 </v>
    <v>       0.00000000       0.24948075       0.24960239 </v>
    <v>       0.50000000       0.24961517       0.24854086 </v>
    <v>       0.00000000       0.75051925       0.24960239 </v>
    <v>       0.50000000       0.75038483       0.24854086 </v>
    <v>       0.00000000       0.00000000       0.00000000 </v>
   </varray>
  </structure>
  <varray name="primitive_index" >
   <v type="int" >        1 </v>
   <v type="int" >        2 </v>
   <v type="int" >        3 </v>
   <v type="int" >        4 </v>
   <v type="int" >        5 </v>
   <v type="int" >        6 </v>
   <v type="int" >        7 </v>
   <v type="int" >        8 </v>
   <v type="int" >        9 </v>
   <v type="int" >       10 </v>
   <v type="int" >       11 </v>
   <v type="int" >       12 </v>
   <v type="int" >       13 </v>
   <v type="int" >       14 </v>
   <v type="int" >       15 </v>
   <v type="int" >       16 </v>
   <v type="int" >       17 </v>
   <v type="int" >       18 </v>
   <v type="int" >       19 </v>
   <v type="int" >       20 </v>
   <v type="int" >       21 </v>
   <v type="int" >       22 </v>
   <v type="int" >       23 </v>
   <v type="int" >       24 </v>
   <v type="int" >       25 </v>
   <v type="int" >       26 </v>
   <v type="int" >       27 </v>
   <v type="int" >       28 </v>
   <v type="int" >       29 </v>
   <v type="int" >       30 </v>
   <v type="int" >       31 </v>
   <v type="int" >       32 </v>
   <v type="int" >       33 </v>
   <v type="int" >       34 </v>
   <v type="int" >       35 </v>
   <v type="int" >       36 </v>
   <v type="int" >       37 </v>
   <v type="int" >       38 </v>
   <v type="int" >       39 </v>
   <v type="int" >       40 </v>
  </varray>
 </primitive_cell>
 <kpoints>
  <generation param="Gamma">
   <v type="int" name="divisions">       4        4        3 </v>
   <v name="usershift">      0.00000000       0.00000000       0.00000000 </v>
   <v name="genvec1">      0.25000000       0.00000000       0.00000000 </v>
   <v name="genvec2">      0.00000000       0.25000000       0.00000000 </v>
   <v name="genvec3">      0.00000000       0.00000000       0.33333333 </v>
   <v name="shift">      0.00000000       0.00000000       0.00000000 </v>
  </generation>
  <varray name="kpointlist" >
   <v>       0.00000000       0.00000000       0.00000000 </v>
   <v>       0.25000000       0.00000000       0.00000000 </v>
   <v>       0.50000000       0.00000000       0.00000000 </v>
   <v>       0.25000000       0.25000000       0.00000000 </v>
   <v>       0.50000000       0.25000000       0.00000000 </v>
   <v>       0.50000000       0.50000000       0.00000000 </v>
   <v>       0.00000000       0.00000000       0.33333333 </v>
   <v>       0.25000000       0.00000000       0.33333333 </v>
   <v>       0.50000000       0.00000000       0.33333333 </v>
   <v>       0.25000000       0.25000000       0.33333333 </v>
   <v>       0.50000000       0.25000000       0.33333333 </v>
   <v>       0.50000000       0.50000000       0.33333333 </v>
  </varray>
  <varray name="weights" >
   <v>       0.02083333 </v>
   <v>       0.08333333 </v>
   <v>       0.04166667 </v>
   <v>       0.08333333 </v>
   <v>       0.08333333 </v>
   <v>       0.02083333 </v>
   <v>       0.04166667 </v>
   <v>       0.16666667 </v>
   <v>       0.08333333 </v>
   <v>       0.16666667 </v>
   <v>       0.16666667 </v>
   <v>       0.04166667 </v>
  </varray>
 </kpoints>
 <parameters>
  <separator name="general" >
   <i type="string" name="SYSTEM">unknown system</i>
   <i type="logical" name="LCOMPAT"> F  </i>
  </separator>
  <separator name="electronic" >
   <i type="string" name="PREC">accura</i>
   <i name="ENMAX">    520.00000000</i>
   <i name="ENAUG">    605.39200000</i>
   <i name="EDIFF">      0.00000001</i>
   <i type="int" name="IALGO">    38</i>
   <i type="int" name="IWAVPR">    11</i>
   <i type="int" name="NBANDS">   232</i>
   <i type="int" name="NBANDSLOW">    -1</i>
   <i type="int" name="NBANDSHIGH">    -1</i>
   <i name="NELECT">    384.00000000</i>
   <i type="int" name="TURBO">     0</i>
   <i type="int" name="IRESTART">     0</i>
   <i type="int" name="NREBOOT">     0</i>
   <i type="int" name="NMIN">     0</i>
   <i name="EREF">      0.00000000</i>
   <separator name="electronic smearing" >
    <i type="int" name="ISMEAR">     0</i>
    <i name="SIGMA">      0.05000000</i>
    <i name="KSPACING">      0.50000000</i>
    <i type="logical" name="KGAMMA"> T  </i>
    <i type="logical" name="KBLOWUP"> T  </i>
   </separator>
   <separator name="electronic projectors" >
    <i type="logical" name="LREAL"> F  </i>
    <v name="ROPT">      0.00000000      0.00000000      0.00000000      0.00000000</v>
    <i type="int" name="LMAXPAW">  -100</i>
    <i type="int" name="LMAXMIX">     2</i>
    <i type="logical" name="NLSPLINE"> F  </i>
   </separator>
   <separator name="electronic startup" >
    <i type="int" name="ISTART">     0</i>
    <i type="int" name="ICHARG">     2</i>
    <i type="int" name="INIWAV">     1</i>
   </separator>
   <separator name="electronic spin" >
    <i type="int" name="ISPIN">     1</i>
    <i type="logical" name="LNONCOLLINEAR"> F  </i>
    <v name="MAGMOM">      1.00000000      1.00000000      1.00000000      1.00000000      1.00000000      1.00000000      1.00000000      1.00000000      1.00000000      1.00000000      1.00000000      1.00000000      1.00000000      1.00000000      1.00000000      1.00000000      1.00000000      1.00000000      1.00000000      1.00000000
      1.00000000      1.00000000      1.00000000      1.00000000      1.00000000      1.00000000      1.00000000      1.00000000      1.00000000      1.00000000      1.00000000      1.00000000      1.00000000      1.00000000      1.00000000      1.00000000      1.00000000      1.00000000      1.00000000      1.00000000
</v>
    <i name="NUPDOWN">     -1.00000000</i>
    <i type="logical" name="LSORBIT"> F  </i>
    <v name="SAXIS">      0.00000000      0.00000000      1.00000000</v>
    <i type="logical" name="LSPIRAL"> F  </i>
    <v name="QSPIRAL">      0.00000000      0.00000000      0.00000000</v>
    <i type="logical" name="LZEROZ"> F  </i>
   </separator>
   <separator name="electronic exchange-correlation" >
    <i type="logical" name="LASPH"> F  </i>
   </separator>
   <separator name="electronic convergence" >
    <i type="int" name="NELM">    60</i>
    <i type="int" name="NELMDL">    -5</i>
    <i type="int" name="NELMIN">     5</i>
    <i name="ENINI">    520.00000000</i>
    <separator name="electronic convergence detail" >
     <i type="logical" name="LDIAG"> T  </i>
     <i type="logical" name="LSUBROT"> F  </i>
     <i name="WEIMIN">      0.00100000</i>
     <i name="EBREAK">      0.00000000</i>
     <i name="DEPER">      0.30000000</i>
     <i type="int" name="NRMM">     4</i>
     <i name="TIME">      0.40000000</i>
    </separator>
   </separator>
   <separator name="electronic mixer" >
    <i name="AMIX">      0.40000000</i>
    <i name="BMIX">      1.00000000</i>
    <i name="AMIN">      0.10000000</i>
    <i name="AMIX_MAG">      1.60000000</i>
    <i name="BMIX_MAG">      1.00000000</i>
    <separator name="electronic mixer details" >
     <i type="int" name="IMIX">     4</i>
     <i type="logical" name="MIXFIRST"> F  </i>
     <i type="int" name="MAXMIX">   -45</i>
     <i name="WC">    100.00000000</i>
     <i type="int" name="INIMIX">     1</i>
     <i type="int" name="MIXPRE">     1</i>
     <i type="int" name="MREMOVE">     5</i>
    </separator>
   </separator>
   <separator name="electronic dipolcorrection" >
    <i type="logical" name="LDIPOL"> F  </i>
    <i type="logical" name="LMONO"> F  </i>
    <i type="int" name="IDIPOL">     0</i>
    <i name="EPSILON">      1.00000000</i>
    <v name="DIPOL">   -100.00000000   -100.00000000   -100.00000000</v>
    <i name="EFIELD">      0.00000000</i>
    <i type="logical" name="LVACPOTAV"> F  </i>
   </separator>
  </separator>
  <separator name="grids" >
   <i type="int" name="NGX">    60</i>
   <i type="int" name="NGY">    60</i>
   <i type="int" name="NGZ">    96</i>
   <i type="int" name="NGXF">   120</i>
   <i type="int" name="NGYF">   120</i>
   <i type="int" name="NGZF">   192</i>
   <i type="logical" name="ADDGRID"> T  </i>
  </separator>
  <separator name="ionic" >
   <i type="int" name="NSW">   100</i>
   <i type="int" name="IBRION">     2</i>
   <i type="int" name="MDALGO">     0</i>
   <i type="int" name="ISIF">     2</i>
   <i name="PSTRESS">      0.00000000</i>
   <i name="EDIFFG">     -0.00001000</i>
   <i type="int" name="NFREE">     1</i>
   <i name="POTIM">      0.50000000</i>
   <i name="SMASS">     -3.00000000</i>
   <i name="SCALEE">      1.00000000</i>
  </separator>
  <separator name="ionic md" >
   <i name="TEBEG">      0.00010000</i>
   <i name="TEEND">      0.00010000</i>
   <i type="int" name="NBLOCK">     1</i>
   <i type="int" name="KBLOCK">   100</i>
   <i type="int" name="NPACO">   256</i>
   <i name="APACO">     10.00000000</i>
  </separator>
  <separator name="symmetry" >
   <i type="int" name="ISYM">     2</i>
   <i name="SYMPREC">      0.00001000</i>
  </separator>
  <separator name="dos" >
   <i type="int" name="LORBIT">     0</i>
   <v name="RWIGS">     -1.00000000     -1.00000000     -1.00000000     -1.00000000</v>
   <i type="int" name="NEDOS">   301</i>
   <i name="EMIN">     10.00000000</i>
   <i name="EMAX">    -10.00000000</i>
   <i name="EFERMI">      0.00000000</i>
  </separator>
  <separator name="writing" >
   <i type="int" name="NWRITE">     2</i>
   <i type="logical" name="LWAVE"> F  </i>
   <i type="logical" name="LDOWNSAMPLE"> F  </i>
   <i type="logical" name="LCHARG"> F  </i>
   <i type="logical" name="LPARD"> F  </i>
   <i type="logical" name="LVTOT"> F  </i>
   <i type="logical" name="LVHAR"> F  </i>
   <i type="logical" name="LELF"> F  </i>
   <i type="logical" name="LOPTICS"> F  </i>
   <v name="STM">      0.00000000      0.00000000      0.00000000      0.00000000      0.00000000      0.00000000      0.00000000</v>
  </separator>
  <separator name="performance" >
   <i type="int" name="NPAR">     4</i>
   <i type="int" name="NSIM">     4</i>
   <i type="int" name="NBLK">    -1</i>
   <i type="logical" name="LPLANE"> T  </i>
   <i type="logical" name="LSCALAPACK"> T  </i>
   <i type="logical" name="LSCAAWARE"> F  </i>
   <i type="logical" name="LSCALU"> F  </i>
   <i type="logical" name="LASYNC"> F  </i>
   <i type="logical" name="LORBITALREAL"> F  </i>
  </separator>
  <separator name="miscellaneous" >
   <i type="int" name="IDIOT">     3</i>
   <i type="int" name="PHON_NSTRUCT">    -1</i>
   <i type="logical" name="LMUSIC"> F  </i>
   <v name="POMASS">    208.98000000     78.96000000     16.00000000     32.06600000</v>
   <v name="DARWINR">      0.00000000      0.00000000      0.00000000      0.00000000</v>
   <v name="DARWINV">      1.00000000      1.00000000      1.00000000      1.00000000</v>
   <i type="logical" name="LCORR"> T  </i>
  </separator>
  <i type="logical" name="GGA_COMPAT"> T  </i>
  <i type="logical" name="LBERRY"> F  </i>
  <i type="int" name="ICORELEVEL">     0</i>
  <i type="logical" name="LDAU"> F  </i>
  <i type="int" name="I_CONSTRAINED_M">     0</i>
  <separator name="electronic exchange-correlation" >
   <i type="string" name="GGA    ">PE</i>
   <i type="string" name="XC_C">1</i>
   <i type="int" name="VOSKOWN">     0</i>
   <i type="logical" name="LHFCALC"> F  </i>
   <i type="string" name="PRECFOCK"></i>
   <i type="logical" name="LSYMGRAD"> F  </i>
   <i type="logical" name="LHFONE"> F  </i>
   <i type="logical" name="LRHFCALC"> F  </i>
   <i type="logical" name="LTHOMAS"> F  </i>
   <i type="logical" name="LMODELHF"> F  </i>
   <i type="logical" name="LFOCKACE"> F  </i>
   <i name="ENCUT4O">     -1.00000000</i>
   <i type="int" name="EXXOEP">     0</i>
   <i type="int" name="FOURORBIT">     0</i>
   <i name="AEXX">      0.00000000</i>
   <i name="HFALPHA">      0.00000000</i>
   <i name="MCALPHA">      0.00000000</i>
   <i name="ALDAX">      1.00000000</i>
   <i name="AGGAX">      1.00000000</i>
   <i name="AMGGAX">      1.00000000</i>
   <i name="ALDAC">      1.00000000</i>
   <i name="AGGAC">      1.00000000</i>
   <i name="AMGGAC">      1.00000000</i>
   <i type="int" name="NKREDX">     1</i>
   <i type="int" name="NKREDY">     1</i>
   <i type="int" name="NKREDZ">     1</i>
   <i type="logical" name="SHIFTRED"> F  </i>
   <i type="logical" name="ODDONLY"> F  </i>
   <i type="logical" name="EVENONLY"> F  </i>
   <i type="int" name="LMAXFOCK">     0</i>
   <i type="int" name="NMAXFOCKAE">     0</i>
   <i type="logical" name="LFOCKAEDFT"> F  </i>
   <i name="HFSCREEN">      0.00000000</i>
   <i name="HFSCREENC">      0.00000000</i>
   <i type="int" name="NBANDSGWLOW">     0</i>
  </separator>
  <separator name="vdW DFT" >
   <i type="logical" name="LUSE_VDW"> F  </i>
   <i type="int" name="IVDW_NL">    -1</i>
   <i type="logical" name="LSPIN_VDW"> F  </i>
   <i name="ZAB_VDW">     -0.84910000</i>
   <i name="GAMMA_VDW">      1.39626340</i>
   <i name="ALPHA_VDW">      0.00000000</i>
   <i name="PARAM1">      0.12340000</i>
   <i name="PARAM2">      1.00000000</i>
   <i name="BPARAM">      6.30000000</i>
   <i name="CPARAM">      0.00930000</i>
  </separator>
  <separator name="model GW" >
   <i type="int" name="MODEL_GW">     0</i>
   <i name="MODEL_EPS0">     11.06907003</i>
   <i name="MODEL_ALPHA">      1.00000000</i>
  </separator>
  <separator name="linear response parameters" >
   <i type="logical" name="LEPSILON"> F  </i>
   <i type="logical" name="LRPA"> F  </i>
   <i type="logical" name="LNABLA"> F  </i>
   <i type="logical" name="LVEL"> F  </i>
   <i name="CSHIFT">      0.10000000</i>
   <i name="OMEGAMAX">     -1.00000000</i>
   <i name="DEG_THRESHOLD">      0.00200000</i>
   <i name="RTIME">     -0.10000000</i>
   <i name="WPLASMAI">      0.00000000</i>
   <v name="DFIELD">      0.00000000      0.00000000      0.00000000</v>
   <v name="WPLASMA">      0.00000000      0.00000000      0.00000000      0.00000000      0.00000000      0.00000000      0.00000000      0.00000000      0.00000000</v>
  </separator>
  <separator name="orbital magnetization" >
   <i type="logical" name="NUCIND"> F  </i>
   <v name="MAGPOS">      0.00000000      0.00000000      0.00000000</v>
   <i type="logical" name="LNICSALL"> T  </i>
   <i type="logical" name="ORBITALMAG"> F  </i>
   <i type="logical" name="LMAGBLOCH"> F  </i>
   <i type="logical" name="LCHIMAG"> F  </i>
   <i type="logical" name="LGAUGE"> T  </i>
   <i type="int" name="MAGATOM">     0</i>
   <v name="MAGDIPOL">      0.00000000      0.00000000      0.00000000</v>
   <v name="AVECCONST">      0.00000000      0.00000000      0.00000000</v>
  </separator>
  <separator name="response functions" >
   <i type="logical" name="LALL_IN_ONE"> F  </i>
   <i type="int" name="IALL_IN_ONE">    -1</i>
   <i type="int" name="NBANDS_WAVE">    -1</i>
   <i type="logical" name="LFINITE_TEMPERATURE"> F  </i>
   <i type="logical" name="LADDER"> F  </i>
   <i type="logical" name="LRPAFORCE"> F  </i>
   <i type="logical" name="LFXC"> F  </i>
   <i type="logical" name="LHARTREE"> T  </i>
   <i type="int" name="IBSE">     0</i>
   <v type="int" name="KPOINT">    -1     0     0     0</v>
   <i type="logical" name="LTCTC"> F  </i>
   <i type="logical" name="LTCTE"> F  </i>
   <i type="logical" name="LTETE"> F  </i>
   <i type="logical" name="LTRIPLET"> F  </i>
   <i type="logical" name="LFXCEPS"> F  </i>
   <i type="logical" name="LFXHEG"> F  </i>
   <i type="int" name="NATURALO">     2</i>
   <i type="logical" name="LHOLEGF"> F  </i>
   <i type="logical" name="L2ORDER"> F  </i>
   <i type="logical" name="LDMP1"> F  </i>
   <i type="logical" name="LMP2LT"> F  </i>
   <i type="logical" name="LSMP2LT"> F  </i>
   <i type="logical" name="LGWLF"> F  </i>
   <i name="ENCUTGW">     -1.60000002</i>
   <i name="ENCUTGWSOFT">     -1.60000002</i>
   <i name="ENCUTLF">     -1.00000000</i>
   <i type="logical" name="ESF_SPLINES"> F  </i>
   <i name="ESF_CONV">      0.01000000</i>
   <i type="int" name="ESF_NINTER">    15</i>
   <i type="int" name="LMAXMP2">    -1</i>
   <i name="SCISSOR">      0.00000000</i>
   <i type="int" name="NOMEGA">     0</i>
   <i type="int" name="NOMEGAR">     0</i>
   <i type="int" name="NBANDSGW">    -1</i>
   <i type="int" name="NBANDSO">    -1</i>
   <i type="int" name="NBANDSV">    -1</i>
   <i type="int" name="NELMGW">     1</i>
   <i type="int" name="NELMHF">     1</i>
   <i type="int" name="DIM">     3</i>
   <i type="int" name="IESPILON">     4</i>
   <i type="int" name="ANTIRES">     0</i>
   <i name="OMEGAMAX">    -30.00000000</i>
   <i name="OMEGAMIN">    -30.00000000</i>
   <i name="OMEGATL">   -200.00000000</i>
   <i type="int" name="OMEGAGRID">     0</i>
   <i name="CSHIFT">     -0.10000000</i>
   <i type="logical" name="LSELFENERGY"> F  </i>
   <i type="logical" name="LSPECTRAL"> F  </i>
   <i type="logical" name="LSPECTRALGW"> F  </i>
   <i type="logical" name="LSINGLES"> F  </i>
   <i type="logical" name="LFERMIGW"> F  </i>
   <i type="logical" name="ODDONLYGW"> F  </i>
   <i type="logical" name="EVENONLYGW"> F  </i>
   <i type="int" name="NKREDLFX">     1</i>
   <i type="int" name="NKREDLFY">     1</i>
   <i type="int" name="NKREDLFZ">     1</i>
   <i type="int" name="MAXMEM">  2800</i>
   <i type="int" name="TELESCOPE">     0</i>
   <i type="int" name="NTAUPAR">    -1</i>
   <i type="int" name="NOMEGAPAR">    -1</i>
   <i name="DAMP_NEWTON">      0.80000001</i>
   <i name="LAMBDA">      1.00000000</i>
  </separator>
  <separator name="External order field" >
   <i name="OFIELD_KAPPA">      0.00000000</i>
   <v name="OFIELD_K">      0.00000000      0.00000000      0.00000000</v>
   <i name="OFIELD_Q6_NEAR">      0.00000000</i>
   <i name="OFIELD_Q6_FAR">      0.00000000</i>
   <i name="OFIELD_A">      0.00000000</i>
  </separator>
  <separator name="optional k-points parameters" >
   <i type="int" name="KPOINTS_OPT_MODE">     1</i>
   <i type="logical" name="LKPOINTS_OPT"> F  </i>
  </separator>
 </parameters>
 <atominfo>
  <atoms>      40 </atoms>
  <types>       4 </types>
  <array name="atoms" >
   <dimension dim="1">ion</dimension>
   <field type="string">element</field>
   <field type="int">atomtype</field>
   <set>
    <rc><c>Bi</c><c>   1</c></rc>
    <rc><c>Bi</c><c>   1</c></rc>
    <rc><c>Bi</c><c>   1</c></rc>
    <rc><c>Bi</c><c>   1</c></rc>
    <rc><c>Bi</c><c>   1</c></rc>
    <rc><c>Bi</c><c>   1</c></rc>
    <rc><c>Bi</c><c>   1</c></rc>
    <rc><c>Bi</c><c>   1</c></rc>
    <rc><c>Bi</c><c>   1</c></rc>
    <rc><c>Bi</c><c>   1</c></rc>
    <rc><c>Bi</c><c>   1</c></rc>
    <rc><c>Bi</c><c>   1</c></rc>
    <rc><c>Bi</c><c>   1</c></rc>
    <rc><c>Bi</c><c>   1</c></rc>
    <rc><c>Bi</c><c>   1</c></rc>
    <rc><c>Bi</c><c>   1</c></rc>
    <rc><c>Se</c><c>   2</c></rc>
    <rc><c>Se</c><c>   2</c></rc>
    <rc><c>Se</c><c>   2</c></rc>
    <rc><c>Se</c><c>   2</c></rc>
    <rc><c>Se</c><c>   2</c></rc>
    <rc><c>Se</c><c>   2</c></rc>
    <rc><c>Se</c><c>   2</c></rc>
    <rc><c>O </c><c>   3</c></rc>
    <rc><c>O </c><c>   3</c></rc>
    <rc><c>O </c><c>   3</c></rc>
    <rc><c>O </c><c>   3</c></rc>
    <rc><c>O </c><c>   3</c></rc>
    <rc><c>O </c><c>   3</c></rc>
    <rc><c>O </c><c>   3</c></rc>
    <rc><c>O </c><c>   3</c></rc>
    <rc><c>O </c><c>   3</c></rc>
    <rc><c>O </c><c>   3</c></rc>
    <rc><c>O </c><c>   3</c></rc>
    <rc><c>O </c><c>   3</c></rc>
    <rc><c>O </c><c>   3</c></rc>
    <rc><c>O </c><c>   3</c></rc>
    <rc><c>O </c><c>   3</c></rc>
    <rc><c>O </c><c>   3</c></rc>
    <rc><c>S </c><c>   4</c></rc>
   </set>
  </array>
  <array name="atomtypes" >
   <dimension dim="1">type</dimension>
   <field type="int">atomspertype</field>
   <field type="string">element</field>
   <field>mass</field>
   <field>valence</field>
   <field type="string">pseudopotential</field>
   <set>
    <rc><c>  16</c><c>Bi</c><c>    208.98000000</c><c>     15.00000000</c><c>  PAW_PBE Bi_d 06Sep2000                </c></rc>
    <rc><c>   7</c><c>Se</c><c>     78.96000000</c><c>      6.00000000</c><c>  PAW_PBE Se 06Sep2000                  </c></rc>
    <rc><c>  16</c><c>O </c><c>     16.00000000</c><c>      6.00000000</c><c>  PAW_PBE O 08Apr2002                   </c></rc>
    <rc><c>   1</c><c>S </c><c>     32.06600000</c><c>      6.00000000</c><c>  PAW_PBE S 06Sep2000                   </c></rc>
   </set>
  </array>
 </atominfo>
 <structure name="initialpos" >
  <crystal>
   <varray name="basis" >
    <v>       7.76175746       0.00000000       0.00000000 </v>
    <v>       0.00000000       7.76175746       0.00000000 </v>
    <v>       0.00000000       0.00000000      12.24897479 </v>
   </varray>
   <i name="volume">    737.93800204 </i>
   <varray name="rec_basis" >
    <v>       0.12883680       0.00000000       0.00000000 </v>
    <v>       0.00000000       0.12883680       0.00000000 </v>
    <v>       0.00000000       0.00000000       0.08163949 </v>
   </varray>
  </crystal>
  <varray name="positions" >
   <v>       0.24884207       0.24884207       0.85570156 </v>
   <v>       0.75115793       0.24884207       0.85570156 </v>
   <v>       0.24884207       0.75115793       0.85570156 </v>
   <v>       0.75115793       0.75115793       0.85570156 </v>
   <v>       0.00000000       0.00000000       0.64526080 </v>
   <v>       0.50000000       0.00000000       0.64608657 </v>
   <v>       0.00000000       0.50000000       0.64608657 </v>
   <v>       0.50000000       0.50000000       0.64700562 </v>
   <v>       0.00000000       0.00000000       0.35473920 </v>
   <v>       0.50000000       0.00000000       0.35391343 </v>
   <v>       0.00000000       0.50000000       0.35391343 </v>
   <v>       0.50000000       0.50000000       0.35299438 </v>
   <v>       0.24884207       0.24884207       0.14429844 </v>
   <v>       0.75115793       0.24884207       0.14429844 </v>
   <v>       0.24884207       0.75115793       0.14429844 </v>
   <v>       0.75115793       0.75115793       0.14429844 </v>
   <v>       0.50000000       0.00000000       0.00000000 </v>
   <v>       0.00000000       0.50000000       0.00000000 </v>
   <v>       0.50000000       0.50000000       0.00000000 </v>
   <v>       0.25027774       0.25027774       0.50000000 </v>
   <v>       0.74972226       0.25027774       0.50000000 </v>
   <v>       0.25027774       0.74972226       0.50000000 </v>
   <v>       0.74972226       0.74972226       0.50000000 </v>
   <v>       0.00000000       0.24948075       0.75039761 </v>
   <v>       0.50000000       0.24961517       0.75145914 </v>
   <v>       0.00000000       0.75051925       0.75039761 </v>
   <v>       0.50000000       0.75038483       0.75145914 </v>
   <v>       0.24948075       0.00000000       0.75039761 </v>
   <v>       0.75051925       0.00000000       0.75039761 </v>
   <v>       0.24961517       0.50000000       0.75145914 </v>
   <v>       0.75038483       0.50000000       0.75145914 </v>
   <v>       0.24948075       0.00000000       0.24960239 </v>
   <v>       0.75051925       0.00000000       0.24960239 </v>
   <v>       0.24961517       0.50000000       0.24854086 </v>
   <v>       0.75038483       0.50000000       0.24854086 </v>
   <v>       0.00000000       0.24948075       0.24960239 </v>
   <v>       0.50000000       0.24961517       0.24854086 </v>
   <v>       0.00000000       0.75051925       0.24960239 </v>
   <v>       0.50000000       0.75038483       0.24854086 </v>
   <v>       0.00000000       0.00000000       0.00000000 </v>
  </varray>
 </structure>
 <calculation>
  <scstep>
   <time name="dav">   31.71   31.72</time>
   <time name="total">   32.59   32.60</time>
   <energy>
    <i name="alphaZ">   1368.89029853 </i>
    <i name="ewald"> -29869.80568309 </i>
    <i name="hartreedc"> -11133.81766313 </i>
    <i name="XCdc">   1237.14192160 </i>
    <i name="pawpsdc">  34040.00696010 </i>
    <i name="pawaedc"> -33495.80632930 </i>
    <i name="eentropy">     -0.00668727 </i>
    <i name="bandstr">   3215.20786770 </i>
    <i name="atom">  40341.65184589 </i>
    <i name="e_fr_energy">   5703.46253104 </i>
    <i name="e_wo_entrp">   5703.46921831 </i>
    <i name="e_0_energy">   5703.46587467 </i>
   </energy>
  </scstep>
  <scstep>
   <time name="dav">   31.73   31.74</time>
   <time name="total">   31.73   31.74</time>
   <energy>
    <i name="e_fr_energy">    986.64889241 </i>
    <i name="e_wo_entrp">    986.66253470 </i>
    <i name="e_0_energy">    986.65571355 </i>
   </energy>
  </scstep>
  <scstep>
   <time name="dav">   34.36   34.37</time>
   <time name="total">   34.36   34.37</time>
   <energy>
    <i name="e_fr_energy">   -108.76993276 </i>
    <i name="e_wo_entrp">   -108.76993269 </i>
    <i name="e_0_energy">   -108.76993272 </i>
   </energy>
  </scstep>
  <scstep>
   <time name="dav">   36.29   36.30</time>
   <time name="total">   36.29   36.30</time>
   <energy>
    <i name="e_fr_energy">   -237.14193079 </i>
    <i name="e_wo_entrp">   -237.14193079 </i>
    <i name="e_0_energy">   -237.14193079 </i>
   </energy>
  </scstep>
  <scstep>
   <time name="dav">   35.82   35.83</time>
   <time name="total">   37.13   37.14</time>
   <energy>
    <i name="e_fr_energy">   -242.72094276 </i>
    <i name="e_wo_entrp">   -242.72094276 </i>
    <i name="e_0_energy">   -242.72094276 </i>
   </energy>
  </scstep>
  <scstep>
   <time name="dav">   40.72   40.74</time>
   <time name="total">   42.90   42.92</time>
   <energy>
    <i name="e_fr_energy">   -208.54490107 </i>
    <i name="e_wo_entrp">   -208.54490107 </i>
    <i name="e_0_energy">   -208.54490107 </i>
   </energy>
  </scstep>
  <scstep>
   <time name="dav">   34.15   34.16</time>
   <time name="total">   36.33   36.34</time>
   <energy>
    <i name="e_fr_energy">   -208.62806562 </i>
    <i name="e_wo_entrp">   -208.62806562 </i>
    <i name="e_0_energy">   -208.62806562 </i>
   </energy>
  </scstep>
  <scstep>
   <time name="dav">   41.86   41.86</time>
   <time name="total">   44.04   44.05</time>
   <energy>
    <i name="e_fr_energy">   -208.75453111 </i>
    <i name="e_wo_entrp">   -208.75453111 </i>
    <i name="e_0_energy">   -208.75453111 </i>
   </energy>
  </scstep>
  <scstep>
   <time name="dav">   39.04   39.04</time>
   <time name="total">   41.23   41.23</time>
   <energy>
    <i name="e_fr_energy">   -208.67136057 </i>
    <i name="e_wo_entrp">   -208.67136057 </i>
    <i name="e_0_energy">   -208.67136057 </i>
   </energy>
  </scstep>
  <scstep>
   <time name="dav">   37.56   37.56</time>
   <time name="total">   39.74   39.74</time>
   <energy>
    <i name="e_fr_energy">   -208.66210757 </i>
    <i name="e_wo_entrp">   -208.66210757 </i>
    <i name="e_0_energy">   -208.66210757 </i>
   </energy>
  </scstep>
  <scstep>
   <time name="dav">   37.80   37.83</time>
   <time name="total">   39.98   40.01</time>
   <energy>
    <i name="e_fr_energy">   -208.66422029 </i>
    <i name="e_wo_entrp">   -208.66422029 </i>
    <i name="e_0_energy">   -208.66422029 </i>
   </energy>
  </scstep>
  <scstep>
   <time name="dav">   40.46   40.49</time>
   <time name="total">   42.65   42.67</time>
   <energy>
    <i name="e_fr_energy">   -208.66507871 </i>
    <i name="e_wo_entrp">   -208.66507871 </i>
    <i name="e_0_energy">   -208.66507871 </i>
   </energy>
  </scstep>
  <scstep>
   <time name="dav">   35.72   35.72</time>
   <time name="total">   37.90   37.90</time>
   <energy>
    <i name="e_fr_energy">   -208.66491899 </i>
    <i name="e_wo_entrp">   -208.66491899 </i>
    <i name="e_0_energy">   -208.66491899 </i>
   </energy>
  </scstep>
  <scstep>
   <time name="dav">   36.18   36.18</time>
   <time name="total">   38.37   38.37</time>
   <energy>
    <i name="e_fr_energy">   -208.66489576 </i>
    <i name="e_wo_entrp">   -208.66489576 </i>
    <i name="e_0_energy">   -208.66489576 </i>
   </energy>
  </scstep>
  <scstep>
   <time name="dav">   42.59   42.59</time>
   <time name="total">   44.77   44.77</time>
   <energy>
    <i name="e_fr_energy">   -208.66487993 </i>
    <i name="e_wo_entrp">   -208.66487993 </i>
    <i name="e_0_energy">   -208.66487993 </i>
   </energy>
  </scstep>
  <scstep>
   <time name="dav">   37.02   37.05</time>
   <time name="total">   39.20   39.23</time>
   <energy>
    <i name="e_fr_energy">   -208.66488053 </i>
    <i name="e_wo_entrp">   -208.66488053 </i>
    <i name="e_0_energy">   -208.66488053 </i>
   </energy>
  </scstep>
  <scstep>
   <time name="dav">   41.61   41.63</time>
   <time name="total">   43.79   43.82</time>
   <energy>
    <i name="e_fr_energy">   -208.66487732 </i>
    <i name="e_wo_entrp">   -208.66487732 </i>
    <i name="e_0_energy">   -208.66487732 </i>
   </energy>
  </scstep>
  <scstep>
   <time name="dav">   34.19   34.19</time>
   <time name="total">   36.38   36.38</time>
   <energy>
    <i name="e_fr_energy">   -208.66487735 </i>
    <i name="e_wo_entrp">   -208.66487735 </i>
    <i name="e_0_energy">   -208.66487735 </i>
   </energy>
  </scstep>
  <scstep>
   <time name="dav">   33.57   33.57</time>
   <time name="total">   35.76   35.76</time>
   <energy>
    <i name="e_fr_energy">   -208.66487760 </i>
    <i name="e_wo_entrp">   -208.66487760 </i>
    <i name="e_0_energy">   -208.66487760 </i>
   </energy>
  </scstep>
  <scstep>
   <time name="dav">   31.58   31.58</time>
   <time name="total">   33.76   33.76</time>
   <energy>
    <i name="e_fr_energy">   -208.66487798 </i>
    <i name="e_wo_entrp">   -208.66487798 </i>
    <i name="e_0_energy">   -208.66487798 </i>
   </energy>
  </scstep>
  <scstep>
   <time name="dav">   29.45   29.45</time>
   <time name="total">   31.64   31.64</time>
   <energy>
    <i name="e_fr_energy">   -208.66487800 </i>
    <i name="e_wo_entrp">   -208.66487800 </i>
    <i name="e_0_energy">   -208.66487800 </i>
   </energy>
  </scstep>
  <scstep>
   <time name="dav">   24.52   24.52</time>
   <time name="total">   26.70   26.71</time>
   <energy>
    <i name="e_fr_energy">   -208.66487790 </i>
    <i name="e_wo_entrp">   -208.66487790 </i>
    <i name="e_0_energy">   -208.66487790 </i>
   </energy>
  </scstep>
  <scstep>
   <time name="dav">   22.97   22.97</time>
   <time name="total">   23.85   23.85</time>
   <energy>
    <i name="alphaZ">   1368.89029853 </i>
    <i name="ewald"> -29869.80568309 </i>
    <i name="hartreedc"> -11302.01460926 </i>
    <i name="XCdc">   1254.43148311 </i>
    <i name="pawpsdc">  36483.60719796 </i>
    <i name="pawaedc"> -35882.10424137 </i>
    <i name="eentropy">     -0.00000000 </i>
    <i name="bandstr">  -2603.32116968 </i>
    <i name="atom">  40341.65184589 </i>
    <i name="e_fr_energy">   -208.66487791 </i>
    <i name="e_wo_entrp">   -208.66487791 </i>
    <i name="e_0_energy">   -208.66487791 </i>
   </energy>
  </scstep>
  <structure>
   <crystal>
    <varray name="basis" >
     <v>       7.76175746       0.00000000       0.00000000 </v>
     <v>       0.00000000       7.76175746       0.00000000 </v>
     <v>       0.00000000       0.00000000      12.24897479 </v>
    </varray>
    <i name="volume">    737.93800204 </i>
    <varray name="rec_basis" >
     <v>       0.12883680       0.00000000       0.00000000 </v>
     <v>       0.00000000       0.12883680       0.00000000 </v>
     <v>       0.00000000       0.00000000       0.08163949 </v>
    </varray>
   </crystal>
   <varray name="positions" >
    <v>       0.24884207       0.24884207       0.85570156 </v>
    <v>       0.75115793       0.24884207       0.85570156 </v>
    <v>       0.24884207       0.75115793       0.85570156 </v>
    <v>       0.75115793       0.75115793       0.85570156 </v>
    <v>       0.00000000       0.00000000       0.64526080 </v>
    <v>       0.50000000       0.00000000       0.64608657 </v>
    <v>       0.00000000       0.50000000       0.64608657 </v>
    <v>       0.50000000       0.50000000       0.64700562 </v>
    <v>       0.00000000       0.00000000       0.35473920 </v>
    <v>       0.50000000       0.00000000       0.35391343 </v>
    <v>       0.00000000       0.50000000       0.35391343 </v>
    <v>       0.50000000       0.50000000       0.35299438 </v>
    <v>       0.24884207       0.24884207       0.14429844 </v>
    <v>       0.75115793       0.24884207       0.14429844 </v>
    <v>       0.24884207       0.75115793       0.14429844 </v>
    <v>       0.75115793       0.75115793       0.14429844 </v>
    <v>       0.50000000       0.00000000       0.00000000 </v>
    <v>       0.00000000       0.50000000       0.00000000 </v>
    <v>       0.50000000       0.50000000       0.00000000 </v>
    <v>       0.25027774       0.25027774       0.50000000 </v>
    <v>       0.74972226       0.25027774       0.50000000 </v>
    <v>       0.25027774       0.74972226       0.50000000 </v>
    <v>       0.74972226       0.74972226       0.50000000 </v>
    <v>       0.00000000       0.24948075       0.75039761 </v>
    <v>       0.50000000       0.24961517       0.75145914 </v>
    <v>       0.00000000       0.75051925       0.75039761 </v>
    <v>       0.50000000       0.75038483       0.75145914 </v>
    <v>       0.24948075       0.00000000       0.75039761 </v>
    <v>       0.75051925       0.00000000       0.75039761 </v>
    <v>       0.24961517       0.50000000       0.75145914 </v>
    <v>       0.75038483       0.50000000       0.75145914 </v>
    <v>       0.24948075       0.00000000       0.24960239 </v>
    <v>       0.75051925       0.00000000       0.24960239 </v>
    <v>       0.24961517       0.50000000       0.24854086 </v>
    <v>       0.75038483       0.50000000       0.24854086 </v>
    <v>       0.00000000       0.24948075       0.24960239 </v>
    <v>       0.50000000       0.24961517       0.24854086 </v>
    <v>       0.00000000       0.75051925       0.24960239 </v>
    <v>       0.50000000       0.75038483       0.24854086 </v>
    <v>       0.00000000       0.00000000       0.00000000 </v>
   </varray>
  </structure>
  <varray name="forces" >
   <v>       0.00000358       0.00000358       0.00000706 </v>
   <v>      -0.00000358       0.00000358       0.00000706 </v>
   <v>       0.00000358      -0.00000358       0.00000706 </v>
   <v>      -0.00000358      -0.00000358       0.00000706 </v>
   <v>      -0.00000000       0.00000000       0.00001440 </v>
   <v>       0.00000000       0.00000000      -0.00001286 </v>
   <v>      -0.00000000      -0.00000000      -0.00001286 </v>
   <v>       0.00000000      -0.00000000      -0.00003836 </v>
   <v>      -0.00000000       0.00000000      -0.00001440 </v>
   <v>      -0.00000000       0.00000000       0.00001286 </v>
   <v>       0.00000000       0.00000000       0.00001286 </v>
   <v>      -0.00000000      -0.00000000       0.00003836 </v>
   <v>       0.00000358       0.00000358      -0.00000706 </v>
   <v>      -0.00000358       0.00000358      -0.00000706 </v>
   <v>       0.00000358      -0.00000358      -0.00000706 </v>
   <v>      -0.00000358      -0.00000358      -0.00000706 </v>
   <v>      -0.00000000       0.00000000      -0.00000000 </v>
   <v>       0.00000000      -0.00000000      -0.00000000 </v>
   <v>      -0.00000000      -0.00000000      -0.00000000 </v>
   <v>       0.00000135       0.00000135      -0.00000000 </v>
   <v>      -0.00000135       0.00000135      -0.00000000 </v>
   <v>       0.00000135      -0.00000135      -0.00000000 </v>
   <v>      -0.00000135      -0.00000135      -0.00000000 </v>
   <v>      -0.00000000       0.00000074       0.00000108 </v>
   <v>      -0.00000000       0.00000084      -0.00000318 </v>
   <v>       0.00000000      -0.00000074       0.00000108 </v>
   <v>      -0.00000000      -0.00000084      -0.00000318 </v>
   <v>       0.00000074      -0.00000000       0.00000108 </v>
   <v>      -0.00000074      -0.00000000       0.00000108 </v>
   <v>       0.00000084      -0.00000000      -0.00000318 </v>
   <v>      -0.00000084      -0.00000000      -0.00000318 </v>
   <v>       0.00000074       0.00000000      -0.00000108 </v>
   <v>      -0.00000074      -0.00000000      -0.00000108 </v>
   <v>       0.00000084       0.00000000       0.00000318 </v>
   <v>      -0.00000084       0.00000000       0.00000318 </v>
   <v>      -0.00000000       0.00000074      -0.00000108 </v>
   <v>       0.00000000       0.00000084       0.00000318 </v>
   <v>       0.00000000      -0.00000074      -0.00000108 </v>
   <v>      -0.00000000      -0.00000084       0.00000318 </v>
   <v>      -0.00000000       0.00000000      -0.00000000 </v>
  </varray>
  <varray name="stress" >
   <v>      27.76158923       0.00000000      -0.00000000 </v>
   <v>       0.00000000      27.76158923       0.00000000 </v>
   <v>       0.00000000       0.00000000      21.18273358 </v>
  </varray>
  <energy>
   <i name="e_fr_energy">   -208.66487791 </i>
   <i name="e_wo_entrp">   -208.66487791 </i>
   <i name="e_0_energy">   -208.66487791 </i>
  </energy>
  <time name="totalsc">  881.83  882.06</time>
 </calculation>
 <calculation>
  <scstep>
   <time name="dav">   26.82   26.84</time>
   <time name="total">   29.00   29.03</time>
   <energy>
    <i name="alphaZ">   1368.89029853 </i>
    <i name="ewald"> -29869.80917330 </i>
    <i name="hartreedc"> -11302.01195526 </i>
    <i name="XCdc">   1254.43152851 </i>
    <i name="pawpsdc">  36483.61108169 </i>
    <i name="pawaedc"> -35882.10829537 </i>
    <i name="eentropy">     -0.00000000 </i>
    <i name="bandstr">  -2603.32020863 </i>
    <i name="atom">  40341.65184589 </i>
    <i name="e_fr_energy">   -208.66487793 </i>
    <i name="e_wo_entrp">   -208.66487793 </i>
    <i name="e_0_energy">   -208.66487793 </i>
   </energy>
  </scstep>
  <scstep>
   <time name="dav">   22.89   22.91</time>
   <time name="total">   25.07   25.09</time>
   <energy>
    <i name="e_fr_energy">   -208.66487792 </i>
    <i name="e_wo_entrp">   -208.66487792 </i>
    <i name="e_0_energy">   -208.66487792 </i>
   </energy>
  </scstep>
  <scstep>
   <time name="dav">   22.76   22.78</time>
   <time name="total">   24.95   24.97</time>
   <energy>
    <i name="e_fr_energy">   -208.66487792 </i>
    <i name="e_wo_entrp">   -208.66487792 </i>
    <i name="e_0_energy">   -208.66487792 </i>
   </energy>
  </scstep>
  <scstep>
   <time name="dav">   22.62   22.62</time>
   <time name="total">   24.80   24.80</time>
   <energy>
    <i name="e_fr_energy">   -208.66487792 </i>
    <i name="e_wo_entrp">   -208.66487792 </i>
    <i name="e_0_energy">   -208.66487792 </i>
   </energy>
  </scstep>
  <scstep>
   <time name="dav">   22.58   22.58</time>
   <time name="total">   23.46   23.46</time>
   <energy>
    <i name="alphaZ">   1368.89029853 </i>
    <i name="ewald"> -29869.80917330 </i>
    <i name="hartreedc"> -11302.01178652 </i>
    <i name="XCdc">   1254.43150349 </i>
    <i name="pawpsdc">  36483.60612664 </i>
    <i name="pawaedc"> -35882.10340006 </i>
    <i name="eentropy">     -0.00000000 </i>
    <i name="bandstr">  -2603.32029259 </i>
    <i name="atom">  40341.65184589 </i>
    <i name="e_fr_energy">   -208.66487791 </i>
    <i name="e_wo_entrp">   -208.66487791 </i>
    <i name="e_0_energy">   -208.66487791 </i>
   </energy>
  </scstep>
  <structure>
   <crystal>
    <varray name="basis" >
     <v>       7.76175746       0.00000000       0.00000000 </v>
     <v>       0.00000000       7.76175746       0.00000000 </v>
     <v>       0.00000000       0.00000000      12.24897479 </v>
    </varray>
    <i name="volume">    737.93800204 </i>
    <varray name="rec_basis" >
     <v>       0.12883680       0.00000000       0.00000000 </v>
     <v>       0.00000000       0.12883680       0.00000000 </v>
     <v>       0.00000000       0.00000000       0.08163949 </v>
    </varray>
   </crystal>
   <varray name="positions" >
    <v>       0.24884209       0.24884209       0.85570158 </v>
    <v>       0.75115791       0.24884209       0.85570158 </v>
    <v>       0.24884209       0.75115791       0.85570158 </v>
    <v>       0.75115791       0.75115791       0.85570158 </v>
    <v>       1.00000000       0.00000000       0.64526086 </v>
    <v>       0.50000000       0.00000000       0.64608652 </v>
    <v>       1.00000000       0.50000000       0.64608652 </v>
    <v>       0.50000000       0.50000000       0.64700547 </v>
    <v>       1.00000000       0.00000000       0.35473914 </v>
    <v>       0.50000000       0.00000000       0.35391348 </v>
    <v>       0.00000000       0.50000000       0.35391348 </v>
    <v>       0.50000000       0.50000000       0.35299453 </v>
    <v>       0.24884209       0.24884209       0.14429842 </v>
    <v>       0.75115791       0.24884209       0.14429842 </v>
    <v>       0.24884209       0.75115791       0.14429842 </v>
    <v>       0.75115791       0.75115791       0.14429842 </v>
    <v>       0.50000000       0.00000000       1.00000000 </v>
    <v>       0.00000000       0.50000000       1.00000000 </v>
    <v>       0.50000000       0.50000000       1.00000000 </v>
    <v>       0.25027775       0.25027775       0.50000000 </v>
    <v>       0.74972225       0.25027775       0.50000000 </v>
    <v>       0.25027775       0.74972225       0.50000000 </v>
    <v>       0.74972225       0.74972225       0.50000000 </v>
    <v>       1.00000000       0.24948076       0.75039762 </v>
    <v>       0.50000000       0.24961518       0.75145913 </v>
    <v>       0.00000000       0.75051924       0.75039762 </v>
    <v>       0.50000000       0.75038482       0.75145913 </v>
    <v>       0.24948076       1.00000000       0.75039762 </v>
    <v>       0.75051924       1.00000000       0.75039762 </v>
    <v>       0.24961518       0.50000000       0.75145913 </v>
    <v>       0.75038482       0.50000000       0.75145913 </v>
    <v>       0.24948076       0.00000000       0.24960238 </v>
    <v>       0.75051924       1.00000000       0.24960238 </v>
    <v>       0.24961518       0.50000000       0.24854087 </v>
    <v>       0.75038482       0.50000000       0.24854087 </v>
    <v>       1.00000000       0.24948076       0.24960238 </v>
    <v>       0.50000000       0.24961518       0.24854087 </v>
    <v>       0.00000000       0.75051924       0.24960238 </v>
    <v>       0.50000000       0.75038482       0.24854087 </v>
    <v>       1.00000000       0.00000000       1.00000000 </v>
   </varray>
  </structure>
  <varray name="forces" >
   <v>       0.00000295       0.00000295      -0.00002072 </v>
   <v>      -0.00000295       0.00000295      -0.00002072 </v>
   <v>       0.00000295      -0.00000295      -0.00002072 </v>
   <v>      -0.00000295      -0.00000295      -0.00002072 </v>
   <v>      -0.00000000       0.00000000       0.00000639 </v>
   <v>       0.00000000      -0.00000000       0.00002493 </v>
   <v>      -0.00000000      -0.00000000       0.00002493 </v>
   <v>       0.00000000      -0.00000000       0.00003614 </v>
   <v>       0.00000000       0.00000000      -0.00000639 </v>
   <v>      -0.00000000       0.00000000      -0.00002493 </v>
   <v>       0.00000000      -0.00000000      -0.00002493 </v>
   <v>      -0.00000000      -0.00000000      -0.00003614 </v>
   <v>       0.00000295       0.00000295       0.00002072 </v>
   <v>      -0.00000295       0.00000295       0.00002072 </v>
   <v>       0.00000295      -0.00000295       0.00002072 </v>
   <v>      -0.00000295      -0.00000295       0.00002072 </v>
   <v>       0.00000000      -0.00000000      -0.00000000 </v>
   <v>      -0.00000000      -0.00000000      -0.00000000 </v>
   <v>       0.00000000      -0.00000000      -0.00000000 </v>
   <v>       0.00000075       0.00000075      -0.00000000 </v>
   <v>      -0.00000075       0.00000075      -0.00000000 </v>
   <v>       0.00000075      -0.00000075      -0.00000000 </v>
   <v>      -0.00000075      -0.00000075      -0.00000000 </v>
   <v>       0.00000000       0.00000185       0.00000017 </v>
   <v>       0.00000000       0.00000195      -0.00000303 </v>
   <v>       0.00000000      -0.00000185       0.00000017 </v>
   <v>      -0.00000000      -0.00000195      -0.00000303 </v>
   <v>       0.00000185      -0.00000000       0.00000017 </v>
   <v>      -0.00000185       0.00000000       0.00000017 </v>
   <v>       0.00000195      -0.00000000      -0.00000303 </v>
   <v>      -0.00000195       0.00000000      -0.00000303 </v>
   <v>       0.00000185      -0.00000000      -0.00000017 </v>
   <v>      -0.00000185       0.00000000      -0.00000017 </v>
   <v>       0.00000195      -0.00000000       0.00000303 </v>
   <v>      -0.00000195      -0.00000000       0.00000303 </v>
   <v>       0.00000000       0.00000185      -0.00000017 </v>
   <v>      -0.00000000       0.00000195       0.00000303 </v>
   <v>      -0.00000000      -0.00000185      -0.00000017 </v>
   <v>       0.00000000      -0.00000195       0.00000303 </v>
   <v>       0.00000000      -0.00000000      -0.00000000 </v>
  </varray>
  <varray name="stress" >
   <v>      27.75846198       0.00000000      -0.00000000 </v>
   <v>       0.00000000      27.75846198       0.00000000 </v>
   <v>       0.00000000       0.00000000      21.17932622 </v>
  </varray>
  <energy>
   <i name="e_fr_energy">   -208.66487791 </i>
   <i name="e_wo_entrp">   -208.66487791 </i>
   <i name="e_0_energy">   -208.66487791 </i>
  </energy>
  <time name="totalsc">  158.43  158.49</time>
 </calculation>
 <calculation>
  <scstep>
   <time name="dav">   25.79   25.79</time>
   <time name="total">   27.97   27.97</time>
   <energy>
    <i name="alphaZ">   1368.89029853 </i>
    <i name="ewald"> -29869.80742372 </i>
    <i name="hartreedc"> -11302.01346559 </i>
    <i name="XCdc">   1254.43150962 </i>
    <i name="pawpsdc">  36483.60587251 </i>
    <i name="pawaedc"> -35882.10314441 </i>
    <i name="eentropy">     -0.00000000 </i>
    <i name="bandstr">  -2603.32037075 </i>
    <i name="atom">  40341.65184589 </i>
    <i name="e_fr_energy">   -208.66487791 </i>
    <i name="e_wo_entrp">   -208.66487791 </i>
    <i name="e_0_energy">   -208.66487791 </i>
   </energy>
  </scstep>
  <scstep>
   <time name="dav">   22.54   22.54</time>
   <time name="total">   24.73   24.73</time>
   <energy>
    <i name="e_fr_energy">   -208.66487791 </i>
    <i name="e_wo_entrp">   -208.66487791 </i>
    <i name="e_0_energy">   -208.66487791 </i>
   </energy>
  </scstep>
  <scstep>
   <time name="dav">   22.47   22.47</time>
   <time name="total">   24.65   24.65</time>
   <energy>
    <i name="e_fr_energy">   -208.66487791 </i>
    <i name="e_wo_entrp">   -208.66487791 </i>
    <i name="e_0_energy">   -208.66487791 </i>
   </energy>
  </scstep>
  <scstep>
   <time name="dav">   22.44   22.44</time>
   <time name="total">   24.62   24.62</time>
   <energy>
    <i name="e_fr_energy">   -208.66487791 </i>
    <i name="e_wo_entrp">   -208.66487791 </i>
    <i name="e_0_energy">   -208.66487791 </i>
   </energy>
  </scstep>
  <scstep>
   <time name="dav">   22.37   22.37</time>
   <time name="total">   23.25   23.25</time>
   <energy>
    <i name="alphaZ">   1368.89029853 </i>
    <i name="ewald"> -29869.80742372 </i>
    <i name="hartreedc"> -11302.01345747 </i>
    <i name="XCdc">   1254.43151255 </i>
    <i name="pawpsdc">  36483.60631454 </i>
    <i name="pawaedc"> -35882.10359521 </i>
    <i name="eentropy">     -0.00000000 </i>
    <i name="bandstr">  -2603.32037304 </i>
    <i name="atom">  40341.65184589 </i>
    <i name="e_fr_energy">   -208.66487791 </i>
    <i name="e_wo_entrp">   -208.66487791 </i>
    <i name="e_0_energy">   -208.66487791 </i>
   </energy>
  </scstep>
  <structure>
   <crystal>
    <varray name="basis" >
     <v>       7.76175746       0.00000000       0.00000000 </v>
     <v>       0.00000000       7.76175746       0.00000000 </v>
     <v>       0.00000000       0.00000000      12.24897479 </v>
    </varray>
    <i name="volume">    737.93800204 </i>
    <varray name="rec_basis" >
     <v>       0.12883680       0.00000000       0.00000000 </v>
     <v>       0.00000000       0.12883680       0.00000000 </v>
     <v>       0.00000000       0.00000000       0.08163949 </v>
    </varray>
   </crystal>
   <varray name="positions" >
    <v>       0.24884208       0.24884208       0.85570157 </v>
    <v>       0.75115792       0.24884208       0.85570157 </v>
    <v>       0.24884208       0.75115792       0.85570157 </v>
    <v>       0.75115792       0.75115792       0.85570157 </v>
    <v>       0.00000000       0.00000000       0.64526083 </v>
    <v>       0.50000000       0.00000000       0.64608655 </v>
    <v>       0.00000000       0.50000000       0.64608655 </v>
    <v>       0.50000000       0.50000000       0.64700555 </v>
    <v>       0.00000000       0.00000000       0.35473917 </v>
    <v>       0.50000000       0.00000000       0.35391345 </v>
    <v>       0.00000000       0.50000000       0.35391345 </v>
    <v>       0.50000000       0.50000000       0.35299445 </v>
    <v>       0.24884208       0.24884208       0.14429843 </v>
    <v>       0.75115792       0.24884208       0.14429843 </v>
    <v>       0.24884208       0.75115792       0.14429843 </v>
    <v>       0.75115792       0.75115792       0.14429843 </v>
    <v>       0.50000000       0.00000000       0.00000000 </v>
    <v>       0.00000000       0.50000000       0.00000000 </v>
    <v>       0.50000000       0.50000000       0.00000000 </v>
    <v>       0.25027775       0.25027775       0.50000000 </v>
    <v>       0.74972225       0.25027775       0.50000000 </v>
    <v>       0.25027775       0.74972225       0.50000000 </v>
    <v>       0.74972225       0.74972225       0.50000000 </v>
    <v>       0.00000000       0.24948076       0.75039762 </v>
    <v>       0.50000000       0.24961517       0.75145914 </v>
    <v>       0.00000000       0.75051924       0.75039762 </v>
    <v>       0.50000000       0.75038483       0.75145914 </v>
    <v>       0.24948076       0.00000000       0.75039762 </v>
    <v>       0.75051924       0.00000000       0.75039762 </v>
    <v>       0.24961517       0.50000000       0.75145914 </v>
    <v>       0.75038483       0.50000000       0.75145914 </v>
    <v>       0.24948076       0.00000000       0.24960238 </v>
    <v>       0.75051924       0.00000000       0.24960238 </v>
    <v>       0.24961517       0.50000000       0.24854086 </v>
    <v>       0.75038483       0.50000000       0.24854086 </v>
    <v>       0.00000000       0.24948076       0.24960238 </v>
    <v>       0.50000000       0.24961517       0.24854086 </v>
    <v>       0.00000000       0.75051924       0.24960238 </v>
    <v>       0.50000000       0.75038483       0.24854086 </v>
    <v>       0.00000000       0.00000000       0.00000000 </v>
   </varray>
  </structure>
  <varray name="forces" >
   <v>       0.00000856       0.00000856      -0.00000416 </v>
   <v>      -0.00000856       0.00000856      -0.00000416 </v>
   <v>       0.00000856      -0.00000856      -0.00000416 </v>
   <v>      -0.00000856      -0.00000856      -0.00000416 </v>
   <v>       0.00000000       0.00000000       0.00003000 </v>
   <v>      -0.00000000       0.00000000      -0.00000294 </v>
   <v>       0.00000000       0.00000000      -0.00000294 </v>
   <v>       0.00000000       0.00000000      -0.00003076 </v>
   <v>      -0.00000000       0.00000000      -0.00003000 </v>
   <v>       0.00000000       0.00000000       0.00000294 </v>
   <v>      -0.00000000       0.00000000       0.00000294 </v>
   <v>      -0.00000000       0.00000000       0.00003076 </v>
   <v>       0.00000856       0.00000856       0.00000416 </v>
   <v>      -0.00000856       0.00000856       0.00000416 </v>
   <v>       0.00000856      -0.00000856       0.00000416 </v>
   <v>      -0.00000856      -0.00000856       0.00000416 </v>
   <v>      -0.00000000       0.00000000       0.00000000 </v>
   <v>      -0.00000000       0.00000000       0.00000000 </v>
   <v>       0.00000000       0.00000000       0.00000000 </v>
   <v>       0.00000091       0.00000091       0.00000000 </v>
   <v>      -0.00000091       0.00000091       0.00000000 </v>
   <v>       0.00000091      -0.00000091       0.00000000 </v>
   <v>      -0.00000091      -0.00000091       0.00000000 </v>
   <v>      -0.00000000       0.00000193       0.00000107 </v>
   <v>       0.00000000       0.00000231      -0.00000504 </v>
   <v>      -0.00000000      -0.00000193       0.00000107 </v>
   <v>       0.00000000      -0.00000231      -0.00000504 </v>
   <v>       0.00000193       0.00000000       0.00000107 </v>
   <v>      -0.00000193       0.00000000       0.00000107 </v>
   <v>       0.00000231       0.00000000      -0.00000504 </v>
   <v>      -0.00000231       0.00000000      -0.00000504 </v>
   <v>       0.00000193       0.00000000      -0.00000107 </v>
   <v>      -0.00000193       0.00000000      -0.00000107 </v>
   <v>       0.00000231       0.00000000       0.00000504 </v>
   <v>      -0.00000231       0.00000000       0.00000504 </v>
   <v>      -0.00000000       0.00000193      -0.00000107 </v>
   <v>      -0.00000000       0.00000231       0.00000504 </v>
   <v>       0.00000000      -0.00000193      -0.00000107 </v>
   <v>       0.00000000      -0.00000231       0.00000504 </v>
   <v>      -0.00000000       0.00000000       0.00000000 </v>
  </varray>
  <varray name="stress" >
   <v>      27.75847581       0.00000000       0.00000000 </v>
   <v>       0.00000000      27.75847581       0.00000000 </v>
   <v>      -0.00000000       0.00000000      21.17938826 </v>
  </varray>
  <energy>
   <i name="e_fr_energy">   -208.66487791 </i>
   <i name="e_wo_entrp">   -208.66487791 </i>
   <i name="e_0_energy">   -208.66487791 </i>
  </energy>
  <time name="totalsc">  156.42  156.43</time>
 </calculation>
 <calculation>
  <scstep>
   <time name="dav">   22.34   22.35</time>
   <time name="total">   24.53   24.54</time>
   <energy>
    <i name="alphaZ">   1368.89029853 </i>
    <i name="ewald"> -29869.80820075 </i>
    <i name="hartreedc"> -11302.01271661 </i>
    <i name="XCdc">   1254.43151017 </i>
    <i name="pawpsdc">  36483.60632249 </i>
    <i name="pawaedc"> -35882.10360426 </i>
    <i name="eentropy">     -0.00000000 </i>
    <i name="bandstr">  -2603.32033338 </i>
    <i name="atom">  40341.65184589 </i>
    <i name="e_fr_energy">   -208.66487791 </i>
    <i name="e_wo_entrp">   -208.66487791 </i>
    <i name="e_0_energy">   -208.66487791 </i>
   </energy>
  </scstep>
  <scstep>
   <time name="dav">   22.25   22.25</time>
   <time name="total">   24.43   24.44</time>
   <energy>
    <i name="e_fr_energy">   -208.66487792 </i>
    <i name="e_wo_entrp">   -208.66487792 </i>
    <i name="e_0_energy">   -208.66487792 </i>
   </energy>
  </scstep>
  <scstep>
   <time name="dav">   22.21   22.21</time>
   <time name="total">   24.40   24.40</time>
   <energy>
    <i name="e_fr_energy">   -208.66487792 </i>
    <i name="e_wo_entrp">   -208.66487792 </i>
    <i name="e_0_energy">   -208.66487792 </i>
   </energy>
  </scstep>
  <scstep>
   <time name="dav">   22.06   22.07</time>
   <time name="total">   24.24   24.26</time>
   <energy>
    <i name="e_fr_energy">   -208.66487791 </i>
    <i name="e_wo_entrp">   -208.66487791 </i>
    <i name="e_0_energy">   -208.66487791 </i>
   </energy>
  </scstep>
  <scstep>
   <time name="dav">   21.91   21.92</time>
   <time name="total">   22.79   22.80</time>
   <energy>
    <i name="alphaZ">   1368.89029853 </i>
    <i name="ewald"> -29869.80820075 </i>
    <i name="hartreedc"> -11302.01271929 </i>
    <i name="XCdc">   1254.43150875 </i>
    <i name="pawpsdc">  36483.60599209 </i>
    <i name="pawaedc"> -35882.10327187 </i>
    <i name="eentropy">     -0.00000000 </i>
    <i name="bandstr">  -2603.32033127 </i>
    <i name="atom">  40341.65184589 </i>
    <i name="e_fr_energy">   -208.66487792 </i>
    <i name="e_wo_entrp">   -208.66487792 </i>
    <i name="e_0_energy">   -208.66487792 </i>
   </energy>
  </scstep>
  <structure>
   <crystal>
    <varray name="basis" >
     <v>       7.76175746       0.00000000       0.00000000 </v>
     <v>       0.00000000       7.76175746       0.00000000 </v>
     <v>       0.00000000       0.00000000      12.24897479 </v>
    </varray>
    <i name="volume">    737.93800204 </i>
    <varray name="rec_basis" >
     <v>       0.12883680       0.00000000       0.00000000 </v>
     <v>       0.00000000       0.12883680       0.00000000 </v>
     <v>       0.00000000       0.00000000       0.08163949 </v>
    </varray>
   </crystal>
   <varray name="positions" >
    <v>       0.24884208       0.24884208       0.85570158 </v>
    <v>       0.75115792       0.24884208       0.85570158 </v>
    <v>       0.24884208       0.75115792       0.85570158 </v>
    <v>       0.75115792       0.75115792       0.85570158 </v>
    <v>       1.00000000       0.00000000       0.64526084 </v>
    <v>       0.50000000       0.00000000       0.64608653 </v>
    <v>       1.00000000       0.50000000       0.64608653 </v>
    <v>       0.50000000       0.50000000       0.64700551 </v>
    <v>       1.00000000       0.00000000       0.35473916 </v>
    <v>       0.50000000       0.00000000       0.35391347 </v>
    <v>       0.00000000       0.50000000       0.35391347 </v>
    <v>       0.50000000       0.50000000       0.35299449 </v>
    <v>       0.24884208       0.24884208       0.14429842 </v>
    <v>       0.75115792       0.24884208       0.14429842 </v>
    <v>       0.24884208       0.75115792       0.14429842 </v>
    <v>       0.75115792       0.75115792       0.14429842 </v>
    <v>       0.50000000       0.00000000       1.00000000 </v>
    <v>       0.00000000       0.50000000       1.00000000 </v>
    <v>       0.50000000       0.50000000       1.00000000 </v>
    <v>       0.25027775       0.25027775       0.50000000 </v>
    <v>       0.74972225       0.25027775       0.50000000 </v>
    <v>       0.25027775       0.74972225       0.50000000 </v>
    <v>       0.74972225       0.74972225       0.50000000 </v>
    <v>       1.00000000       0.24948076       0.75039762 </v>
    <v>       0.50000000       0.24961517       0.75145914 </v>
    <v>       0.00000000       0.75051924       0.75039762 </v>
    <v>       0.50000000       0.75038483       0.75145914 </v>
    <v>       0.24948076       1.00000000       0.75039762 </v>
    <v>       0.75051924       1.00000000       0.75039762 </v>
    <v>       0.24961517       0.50000000       0.75145914 </v>
    <v>       0.75038483       0.50000000       0.75145914 </v>
    <v>       0.24948076       0.00000000       0.24960238 </v>
    <v>       0.75051924       1.00000000       0.24960238 </v>
    <v>       0.24961517       0.50000000       0.24854086 </v>
    <v>       0.75038483       0.50000000       0.24854086 </v>
    <v>       1.00000000       0.24948076       0.24960238 </v>
    <v>       0.50000000       0.24961517       0.24854086 </v>
    <v>       0.00000000       0.75051924       0.24960238 </v>
    <v>       0.50000000       0.75038483       0.24854086 </v>
    <v>       1.00000000       0.00000000       1.00000000 </v>
   </varray>
  </structure>
  <varray name="forces" >
   <v>       0.00000415       0.00000415      -0.00001491 </v>
   <v>      -0.00000415       0.00000415      -0.00001491 </v>
   <v>       0.00000415      -0.00000415      -0.00001491 </v>
   <v>      -0.00000415      -0.00000415      -0.00001491 </v>
   <v>      -0.00000000       0.00000000       0.00001175 </v>
   <v>      -0.00000000       0.00000000       0.00001639 </v>
   <v>      -0.00000000       0.00000000       0.00001639 </v>
   <v>      -0.00000000       0.00000000       0.00001774 </v>
   <v>      -0.00000000       0.00000000      -0.00001175 </v>
   <v>      -0.00000000       0.00000000      -0.00001639 </v>
   <v>      -0.00000000       0.00000000      -0.00001639 </v>
   <v>      -0.00000000       0.00000000      -0.00001774 </v>
   <v>       0.00000415       0.00000415       0.00001491 </v>
   <v>      -0.00000415       0.00000415       0.00001491 </v>
   <v>       0.00000415      -0.00000415       0.00001491 </v>
   <v>      -0.00000415      -0.00000415       0.00001491 </v>
   <v>      -0.00000000       0.00000000       0.00000000 </v>
   <v>      -0.00000000       0.00000000       0.00000000 </v>
   <v>      -0.00000000       0.00000000       0.00000000 </v>
   <v>       0.00000079       0.00000079       0.00000000 </v>
   <v>      -0.00000079       0.00000079       0.00000000 </v>
   <v>       0.00000079      -0.00000079       0.00000000 </v>
   <v>      -0.00000079      -0.00000079       0.00000000 </v>
   <v>      -0.00000000       0.00000181       0.00000051 </v>
   <v>      -0.00000000       0.00000211      -0.00000358 </v>
   <v>      -0.00000000      -0.00000181       0.00000051 </v>
   <v>      -0.00000000      -0.00000211      -0.00000358 </v>
   <v>       0.00000181       0.00000000       0.00000051 </v>
   <v>      -0.00000181       0.00000000       0.00000051 </v>
   <v>       0.00000211       0.00000000      -0.00000358 </v>
   <v>      -0.00000211       0.00000000      -0.00000358 </v>
   <v>       0.00000181       0.00000000      -0.00000051 </v>
   <v>      -0.00000181       0.00000000      -0.00000051 </v>
   <v>       0.00000211       0.00000000       0.00000358 </v>
   <v>      -0.00000211       0.00000000       0.00000358 </v>
   <v>      -0.00000000       0.00000181      -0.00000051 </v>
   <v>      -0.00000000       0.00000211       0.00000358 </v>
   <v>      -0.00000000      -0.00000181      -0.00000051 </v>
   <v>      -0.00000000      -0.00000211       0.00000358 </v>
   <v>      -0.00000000       0.00000000       0.00000000 </v>
  </varray>
  <varray name="stress" >
   <v>      27.75842439       0.00000000       0.00000000 </v>
   <v>       0.00000000      27.75842439       0.00000000 </v>
   <v>       0.00000000       0.00000000      21.17931694 </v>
  </varray>
  <energy>
   <i name="e_fr_energy">   -208.66487792 </i>
   <i name="e_wo_entrp">   -208.66487792 </i>
   <i name="e_0_energy">   -208.66487792 </i>
  </energy>
  <time name="totalsc">  151.53  151.57</time>
 </calculation>
 <calculation>
  <scstep>
   <time name="dav">   21.86   21.87</time>
   <time name="total">   24.04   24.06</time>
   <energy>
    <i name="alphaZ">   1368.89029853 </i>
    <i name="ewald"> -29869.80790472 </i>
    <i name="hartreedc"> -11302.01300035 </i>
    <i name="XCdc">   1254.43150965 </i>
    <i name="pawpsdc">  36483.60597626 </i>
    <i name="pawaedc"> -35882.10325583 </i>
    <i name="eentropy">     -0.00000000 </i>
    <i name="bandstr">  -2603.32034735 </i>
    <i name="atom">  40341.65184589 </i>
    <i name="e_fr_energy">   -208.66487791 </i>
    <i name="e_wo_entrp">   -208.66487791 </i>
    <i name="e_0_energy">   -208.66487791 </i>
   </energy>
  </scstep>
  <scstep>
   <time name="dav">   21.83   21.85</time>
   <time name="total">   24.01   24.03</time>
   <energy>
    <i name="e_fr_energy">   -208.66487791 </i>
    <i name="e_wo_entrp">   -208.66487791 </i>
    <i name="e_0_energy">   -208.66487791 </i>
   </energy>
  </scstep>
  <scstep>
   <time name="dav">   21.79   21.79</time>
   <time name="total">   23.97   23.97</time>
   <energy>
    <i name="e_fr_energy">   -208.66487791 </i>
    <i name="e_wo_entrp">   -208.66487791 </i>
    <i name="e_0_energy">   -208.66487791 </i>
   </energy>
  </scstep>
  <scstep>
   <time name="dav">   21.76   21.76</time>
   <time name="total">   23.94   23.94</time>
   <energy>
    <i name="e_fr_energy">   -208.66487792 </i>
    <i name="e_wo_entrp">   -208.66487792 </i>
    <i name="e_0_energy">   -208.66487792 </i>
   </energy>
  </scstep>
  <scstep>
   <time name="dav">   21.75   21.75</time>
   <time name="total">   22.62   22.63</time>
   <energy>
    <i name="alphaZ">   1368.89029853 </i>
    <i name="ewald"> -29869.80790472 </i>
    <i name="hartreedc"> -11302.01299893 </i>
    <i name="XCdc">   1254.43151020 </i>
    <i name="pawpsdc">  36483.60608214 </i>
    <i name="pawaedc"> -35882.10336251 </i>
    <i name="eentropy">     -0.00000000 </i>
    <i name="bandstr">  -2603.32034851 </i>
    <i name="atom">  40341.65184589 </i>
    <i name="e_fr_energy">   -208.66487791 </i>
    <i name="e_wo_entrp">   -208.66487791 </i>
    <i name="e_0_energy">   -208.66487791 </i>
   </energy>
  </scstep>
  <structure>
   <crystal>
    <varray name="basis" >
     <v>       7.76175746       0.00000000       0.00000000 </v>
     <v>       0.00000000       7.76175746       0.00000000 </v>
     <v>       0.00000000       0.00000000      12.24897479 </v>
    </varray>
    <i name="volume">    737.93800204 </i>
    <varray name="rec_basis" >
     <v>       0.12883680       0.00000000       0.00000000 </v>
     <v>       0.00000000       0.12883680       0.00000000 </v>
     <v>       0.00000000       0.00000000       0.08163949 </v>
    </varray>
   </crystal>
   <varray name="positions" >
    <v>       0.24884208       0.24884208       0.85570157 </v>
    <v>       0.75115792       0.24884208       0.85570157 </v>
    <v>       0.24884208       0.75115792       0.85570157 </v>
    <v>       0.75115792       0.75115792       0.85570157 </v>
    <v>       0.00000000       0.00000000       0.64526084 </v>
    <v>       0.50000000       0.00000000       0.64608654 </v>
    <v>       0.00000000       0.50000000       0.64608654 </v>
    <v>       0.50000000       0.50000000       0.64700552 </v>
    <v>       0.00000000       0.00000000       0.35473916 </v>
    <v>       0.50000000       0.00000000       0.35391346 </v>
    <v>       0.00000000       0.50000000       0.35391346 </v>
    <v>       0.50000000       0.50000000       0.35299448 </v>
    <v>       0.24884208       0.24884208       0.14429843 </v>
    <v>       0.75115792       0.24884208       0.14429843 </v>
    <v>       0.24884208       0.75115792       0.14429843 </v>
    <v>       0.75115792       0.75115792       0.14429843 </v>
    <v>       0.50000000       0.00000000       0.00000000 </v>
    <v>       0.00000000       0.50000000       0.00000000 </v>
    <v>       0.50000000       0.50000000       0.00000000 </v>
    <v>       0.25027775       0.25027775       0.50000000 </v>
    <v>       0.74972225       0.25027775       0.50000000 </v>
    <v>       0.25027775       0.74972225       0.50000000 </v>
    <v>       0.74972225       0.74972225       0.50000000 </v>
    <v>       0.00000000       0.24948076       0.75039762 </v>
    <v>       0.50000000       0.24961517       0.75145914 </v>
    <v>       0.00000000       0.75051924       0.75039762 </v>
    <v>       0.50000000       0.75038483       0.75145914 </v>
    <v>       0.24948076       0.00000000       0.75039762 </v>
    <v>       0.75051924       0.00000000       0.75039762 </v>
    <v>       0.24961517       0.50000000       0.75145914 </v>
    <v>       0.75038483       0.50000000       0.75145914 </v>
    <v>       0.24948076       0.00000000       0.24960238 </v>
    <v>       0.75051924       0.00000000       0.24960238 </v>
    <v>       0.24961517       0.50000000       0.24854086 </v>
    <v>       0.75038483       0.50000000       0.24854086 </v>
    <v>       0.00000000       0.24948076       0.24960238 </v>
    <v>       0.50000000       0.24961517       0.24854086 </v>
    <v>       0.00000000       0.75051924       0.24960238 </v>
    <v>       0.50000000       0.75038483       0.24854086 </v>
    <v>       0.00000000       0.00000000       0.00000000 </v>
   </varray>
  </structure>
  <varray name="forces" >
   <v>       0.00000733       0.00000733      -0.00000781 </v>
   <v>      -0.00000733       0.00000733      -0.00000781 </v>
   <v>       0.00000733      -0.00000733      -0.00000781 </v>
   <v>      -0.00000733      -0.00000733      -0.00000781 </v>
   <v>       0.00000000      -0.00000000       0.00002457 </v>
   <v>       0.00000000       0.00000000       0.00000347 </v>
   <v>       0.00000000       0.00000000       0.00000347 </v>
   <v>       0.00000000      -0.00000000      -0.00001834 </v>
   <v>       0.00000000       0.00000000      -0.00002457 </v>
   <v>       0.00000000       0.00000000      -0.00000347 </v>
   <v>       0.00000000       0.00000000      -0.00000347 </v>
   <v>       0.00000000      -0.00000000       0.00001834 </v>
   <v>       0.00000733       0.00000733       0.00000781 </v>
   <v>      -0.00000733       0.00000733       0.00000781 </v>
   <v>       0.00000733      -0.00000733       0.00000781 </v>
   <v>      -0.00000733      -0.00000733       0.00000781 </v>
   <v>       0.00000000      -0.00000000       0.00000000 </v>
   <v>       0.00000000       0.00000000       0.00000000 </v>
   <v>       0.00000000      -0.00000000       0.00000000 </v>
   <v>       0.00000093       0.00000093       0.00000000 </v>
   <v>      -0.00000093       0.00000093       0.00000000 </v>
   <v>       0.00000093      -0.00000093       0.00000000 </v>
   <v>      -0.00000093      -0.00000093       0.00000000 </v>
   <v>       0.00000000       0.00000186       0.00000078 </v>
   <v>       0.00000000       0.00000220      -0.00000432 </v>
   <v>       0.00000000      -0.00000186       0.00000078 </v>
   <v>       0.00000000      -0.00000220      -0.00000432 </v>
   <v>       0.00000186       0.00000000       0.00000078 </v>
   <v>      -0.00000186      -0.00000000       0.00000078 </v>
   <v>       0.00000220      -0.00000000      -0.00000432 </v>
   <v>      -0.00000220       0.00000000      -0.00000432 </v>
   <v>       0.00000186      -0.00000000      -0.00000078 </v>
   <v>      -0.00000186      -0.00000000      -0.00000078 </v>
   <v>       0.00000220      -0.00000000       0.00000432 </v>
   <v>      -0.00000220      -0.00000000       0.00000432 </v>
   <v>       0.00000000       0.00000186      -0.00000078 </v>
   <v>       0.00000000       0.00000220       0.00000432 </v>
   <v>       0.00000000      -0.00000186      -0.00000078 </v>
   <v>       0.00000000      -0.00000220       0.00000432 </v>
   <v>       0.00000000       0.00000000       0.00000000 </v>
  </varray>
  <varray name="stress" >
   <v>      27.75845185       0.00000000      -0.00000000 </v>
   <v>       0.00000000      27.75845185       0.00000000 </v>
   <v>      -0.00000000       0.00000000      21.17935701 </v>
  </varray>
  <energy>
   <i name="e_fr_energy">   -208.66487791 </i>
   <i name="e_wo_entrp">   -208.66487791 </i>
   <i name="e_0_energy">   -208.66487791 </i>
  </energy>
  <time name="totalsc">  149.73  149.77</time>
 </calculation>
 <calculation>
  <scstep>
   <time name="dav">   21.77   21.77</time>
   <time name="total">   23.96   23.96</time>
   <energy>
    <i name="alphaZ">   1368.89029853 </i>
    <i name="ewald"> -29869.80804354 </i>
    <i name="hartreedc"> -11302.01286674 </i>
    <i name="XCdc">   1254.43150976 </i>
    <i name="pawpsdc">  36483.60608583 </i>
    <i name="pawaedc"> -35882.10336632 </i>
    <i name="eentropy">     -0.00000000 </i>
    <i name="bandstr">  -2603.32034133 </i>
    <i name="atom">  40341.65184589 </i>
    <i name="e_fr_energy">   -208.66487792 </i>
    <i name="e_wo_entrp">   -208.66487792 </i>
    <i name="e_0_energy">   -208.66487792 </i>
   </energy>
  </scstep>
  <scstep>
   <time name="dav">   21.75   21.75</time>
   <time name="total">   23.94   23.94</time>
   <energy>
    <i name="e_fr_energy">   -208.66487792 </i>
    <i name="e_wo_entrp">   -208.66487792 </i>
    <i name="e_0_energy">   -208.66487792 </i>
   </energy>
  </scstep>
  <scstep>
   <time name="dav">   21.75   21.75</time>
   <time name="total">   23.95   23.95</time>
   <energy>
    <i name="e_fr_energy">   -208.66487792 </i>
    <i name="e_wo_entrp">   -208.66487792 </i>
    <i name="e_0_energy">   -208.66487792 </i>
   </energy>
  </scstep>
  <scstep>
   <time name="dav">   21.74   21.75</time>
   <time name="total">   23.93   23.94</time>
   <energy>
    <i name="e_fr_energy">   -208.66487792 </i>
    <i name="e_wo_entrp">   -208.66487792 </i>
    <i name="e_0_energy">   -208.66487792 </i>
   </energy>
  </scstep>
  <scstep>
   <time name="dav">   21.75   21.76</time>
   <time name="total">   22.62   22.64</time>
   <energy>
    <i name="alphaZ">   1368.89029853 </i>
    <i name="ewald"> -29869.80804354 </i>
    <i name="hartreedc"> -11302.01286681 </i>
    <i name="XCdc">   1254.43150945 </i>
    <i name="pawpsdc">  36483.60602741 </i>
    <i name="pawaedc"> -35882.10330755 </i>
    <i name="eentropy">     -0.00000000 </i>
    <i name="bandstr">  -2603.32034130 </i>
    <i name="atom">  40341.65184589 </i>
    <i name="e_fr_energy">   -208.66487792 </i>
    <i name="e_wo_entrp">   -208.66487792 </i>
    <i name="e_0_energy">   -208.66487792 </i>
   </energy>
  </scstep>
  <structure>
   <crystal>
    <varray name="basis" >
     <v>       7.76175746       0.00000000       0.00000000 </v>
     <v>       0.00000000       7.76175746       0.00000000 </v>
     <v>       0.00000000       0.00000000      12.24897479 </v>
    </varray>
    <i name="volume">    737.93800204 </i>
    <varray name="rec_basis" >
     <v>       0.12883680       0.00000000       0.00000000 </v>
     <v>       0.00000000       0.12883680       0.00000000 </v>
     <v>       0.00000000       0.00000000       0.08163949 </v>
    </varray>
   </crystal>
   <varray name="positions" >
    <v>       0.24884208       0.24884208       0.85570157 </v>
    <v>       0.75115792       0.24884208       0.85570157 </v>
    <v>       0.24884208       0.75115792       0.85570157 </v>
    <v>       0.75115792       0.75115792       0.85570157 </v>
    <v>       1.00000000       0.00000000       0.64526084 </v>
    <v>       0.50000000       0.00000000       0.64608654 </v>
    <v>       1.00000000       0.50000000       0.64608654 </v>
    <v>       0.50000000       0.50000000       0.64700552 </v>
    <v>       1.00000000       0.00000000       0.35473916 </v>
    <v>       0.50000000       0.00000000       0.35391346 </v>
    <v>       0.00000000       0.50000000       0.35391346 </v>
    <v>       0.50000000       0.50000000       0.35299448 </v>
    <v>       0.24884208       0.24884208       0.14429843 </v>
    <v>       0.75115792       0.24884208       0.14429843 </v>
    <v>       0.24884208       0.75115792       0.14429843 </v>
    <v>       0.75115792       0.75115792       0.14429843 </v>
    <v>       0.50000000       0.00000000       1.00000000 </v>
    <v>       0.00000000       0.50000000       1.00000000 </v>
    <v>       0.50000000       0.50000000       1.00000000 </v>
    <v>       0.25027775       0.25027775       0.50000000 </v>
    <v>       0.74972225       0.25027775       0.50000000 </v>
    <v>       0.25027775       0.74972225       0.50000000 </v>
    <v>       0.74972225       0.74972225       0.50000000 </v>
    <v>       1.00000000       0.24948076       0.75039762 </v>
    <v>       0.50000000       0.24961517       0.75145914 </v>
    <v>       0.00000000       0.75051924       0.75039762 </v>
    <v>       0.50000000       0.75038483       0.75145914 </v>
    <v>       0.24948076       1.00000000       0.75039762 </v>
    <v>       0.75051924       1.00000000       0.75039762 </v>
    <v>       0.24961517       0.50000000       0.75145914 </v>
    <v>       0.75038483       0.50000000       0.75145914 </v>
    <v>       0.24948076       0.00000000       0.24960238 </v>
    <v>       0.75051924       1.00000000       0.24960238 </v>
    <v>       0.24961517       0.50000000       0.24854086 </v>
    <v>       0.75038483       0.50000000       0.24854086 </v>
    <v>       1.00000000       0.24948076       0.24960238 </v>
    <v>       0.50000000       0.24961517       0.24854086 </v>
    <v>       0.00000000       0.75051924       0.24960238 </v>
    <v>       0.50000000       0.75038483       0.24854086 </v>
    <v>       1.00000000       0.00000000       1.00000000 </v>
   </varray>
  </structure>
  <varray name="forces" >
   <v>       0.00000598       0.00000598      -0.00001089 </v>
[...]
       <r>    6.3239    1.0000 </r>
       <r>    6.3417    1.0000 </r>
       <r>    8.3935    0.0000 </r>
       <r>    8.4242    0.0000 </r>
       <r>    8.4242    0.0000 </r>
       <r>    8.4587    0.0000 </r>
       <r>    9.1745    0.0000 </r>
       <r>    9.2060    0.0000 </r>
       <r>    9.2060    0.0000 </r>
       <r>    9.2384    0.0000 </r>
       <r>    9.5938    0.0000 </r>
       <r>    9.6036    0.0000 </r>
       <r>    9.6236    0.0000 </r>
       <r>    9.6236    0.0000 </r>
       <r>    9.9122    0.0000 </r>
       <r>    9.9300    0.0000 </r>
       <r>    9.9550    0.0000 </r>
       <r>    9.9550    0.0000 </r>
       <r>   10.2268    0.0000 </r>
       <r>   10.2268    0.0000 </r>
       <r>   10.2718    0.0000 </r>
       <r>   10.2832    0.0000 </r>
       <r>   10.3011    0.0000 </r>
       <r>   10.3087    0.0000 </r>
       <r>   10.3087    0.0000 </r>
       <r>   10.3274    0.0000 </r>
       <r>   11.1752    0.0000 </r>
       <r>   11.1752    0.0000 </r>
       <r>   11.1992    0.0000 </r>
       <r>   11.2049    0.0000 </r>
       <r>   11.2663    0.0000 </r>
       <r>   11.2663    0.0000 </r>
       <r>   11.2691    0.0000 </r>
       <r>   11.2764    0.0000 </r>
       <r>   11.8090    0.0000 </r>
       <r>   11.8406    0.0000 </r>
       <r>   11.8406    0.0000 </r>
       <r>   11.8826    0.0000 </r>
       <r>   11.9016    0.0000 </r>
       <r>   11.9016    0.0000 </r>
       <r>   11.9507    0.0000 </r>
       <r>   11.9533    0.0000 </r>
      </set>
     </set>
    </set>
   </array>
  </eigenvalues>
  <separator name="orbital magnetization" >
   <v name="MAGDIPOLOUT">      0.00000000      0.00000000      0.00000000</v>
  </separator>
  <dos>
   <i name="efermi">      6.85894213 </i>
   <total>
    <array>
     <dimension dim="1">gridpoints</dimension>
     <dimension dim="2">spin</dimension>
     <field>energy</field>
     <field>total</field>
     <field>integrated</field>
     <set>
      <set comment="spin 1">
       <r>   -17.8261     0.0000     0.0000 </r>
       <r>   -17.7212     0.0000     0.0000 </r>
       <r>   -17.6162     0.0000     0.0000 </r>
       <r>   -17.5112     0.0000     0.0000 </r>
       <r>   -17.4062     0.0000     0.0000 </r>
       <r>   -17.3012     0.0000     0.0000 </r>
       <r>   -17.1962     0.0000     0.0000 </r>
       <r>   -17.0912     0.0000     0.0000 </r>
       <r>   -16.9862     0.0000     0.0000 </r>
       <r>   -16.8813     0.0000     0.0000 </r>
       <r>   -16.7763     0.0000     0.0000 </r>
       <r>   -16.6713     0.0000     0.0000 </r>
       <r>   -16.5663     0.0000     0.0000 </r>
       <r>   -16.4613     1.2503     0.1313 </r>
       <r>   -16.3563   120.0388    12.7338 </r>
       <r>   -16.2513   173.2325    30.9210 </r>
       <r>   -16.1464   774.4273   112.2258 </r>
       <r>   -16.0414   452.3585   159.7176 </r>
       <r>   -15.9364     2.6897   160.0000 </r>
       <r>   -15.8314     0.0000   160.0000 </r>
       <r>   -15.7264     0.0000   160.0000 </r>
       <r>   -15.6214     0.0000   160.0000 </r>
       <r>   -15.5164     0.0000   160.0000 </r>
       <r>   -15.4114     0.0000   160.0000 </r>
       <r>   -15.3065     0.0000   160.0000 </r>
       <r>   -15.2015     0.0000   160.0000 </r>
       <r>   -15.0965     0.0000   160.0000 </r>
       <r>   -14.9915     0.0000   160.0000 </r>
       <r>   -14.8865     0.0000   160.0000 </r>
       <r>   -14.7815     0.0000   160.0000 </r>
       <r>   -14.6765     0.0000   160.0000 </r>
       <r>   -14.5715     0.0000   160.0000 </r>
       <r>   -14.4666     0.0000   160.0000 </r>
       <r>   -14.3616     0.0000   160.0000 </r>
       <r>   -14.2566     0.0000   160.0000 </r>
       <r>   -14.1516     0.0000   160.0000 </r>
       <r>   -14.0466     0.0000   160.0000 </r>
       <r>   -13.9416     0.0000   160.0000 </r>
       <r>   -13.8366     0.0000   160.0000 </r>
       <r>   -13.7316     0.0000   160.0000 </r>
       <r>   -13.6267     0.0000   160.0000 </r>
       <r>   -13.5217     0.0000   160.0000 </r>
       <r>   -13.4167     0.0000   160.0000 </r>
       <r>   -13.3117     0.0000   160.0000 </r>
       <r>   -13.2067     0.0000   160.0000 </r>
       <r>   -13.1017     0.0000   160.0000 </r>
       <r>   -12.9967     0.0000   160.0000 </r>
       <r>   -12.8918     0.0381   160.0040 </r>
       <r>   -12.7868     1.9448   160.2082 </r>
       <r>   -12.6818     7.7433   161.0211 </r>
       <r>   -12.5768     9.4882   162.0173 </r>
       <r>   -12.4718     2.5415   162.2841 </r>
       <r>   -12.3668     8.9279   163.2214 </r>
       <r>   -12.2618    17.5100   165.0597 </r>
       <r>   -12.1568     1.8484   165.2538 </r>
       <r>   -12.0519     4.9117   165.7694 </r>
       <r>   -11.9469    11.2255   166.9480 </r>
       <r>   -11.8419    19.6937   169.0156 </r>
       <r>   -11.7369     3.7082   169.4049 </r>
       <r>   -11.6319    16.0758   171.0926 </r>
       <r>   -11.5269     1.6478   171.2656 </r>
       <r>   -11.4219    16.9138   173.0413 </r>
       <r>   -11.3169    24.6895   175.6334 </r>
       <r>   -11.2120    16.4649   177.3620 </r>
       <r>   -11.1070    19.2807   179.3862 </r>
       <r>   -11.0020    13.2983   180.7824 </r>
       <r>   -10.8970    44.8072   185.4866 </r>
       <r>   -10.7920     2.9724   185.7986 </r>
       <r>   -10.6870     9.2016   186.7647 </r>
       <r>   -10.5820    24.1869   189.3040 </r>
       <r>   -10.4770     6.1873   189.9536 </r>
       <r>   -10.3721    14.2690   191.4516 </r>
       <r>   -10.2671     5.0847   191.9855 </r>
       <r>   -10.1621     0.1384   192.0000 </r>
       <r>   -10.0571     0.0000   192.0000 </r>
       <r>    -9.9521     0.0000   192.0000 </r>
       <r>    -9.8471     0.0000   192.0000 </r>
       <r>    -9.7421     0.0000   192.0000 </r>
       <r>    -9.6372     0.0000   192.0000 </r>
       <r>    -9.5322     0.0000   192.0000 </r>
       <r>    -9.4272     0.0000   192.0000 </r>
       <r>    -9.3222     0.0000   192.0000 </r>
       <r>    -9.2172     0.0000   192.0000 </r>
       <r>    -9.1122     0.0000   192.0000 </r>
       <r>    -9.0072     0.0000   192.0000 </r>
       <r>    -8.9022     0.0000   192.0000 </r>
       <r>    -8.7973     0.0000   192.0000 </r>
       <r>    -8.6923     0.0000   192.0000 </r>
       <r>    -8.5873     0.0000   192.0000 </r>
       <r>    -8.4823     0.0000   192.0000 </r>
       <r>    -8.3773     0.0000   192.0000 </r>
       <r>    -8.2723     0.0000   192.0000 </r>
       <r>    -8.1673     0.0000   192.0000 </r>
       <r>    -8.0623     0.0000   192.0000 </r>
       <r>    -7.9574     0.0000   192.0000 </r>
       <r>    -7.8524     0.0000   192.0000 </r>
       <r>    -7.7474     0.0000   192.0000 </r>
       <r>    -7.6424     0.0000   192.0000 </r>
       <r>    -7.5374     0.0000   192.0000 </r>
       <r>    -7.4324     0.0000   192.0000 </r>
       <r>    -7.3274     0.0000   192.0000 </r>
       <r>    -7.2224     0.0000   192.0000 </r>
       <r>    -7.1175     0.0000   192.0000 </r>
       <r>    -7.0125     0.0000   192.0000 </r>
       <r>    -6.9075     0.0000   192.0000 </r>
       <r>    -6.8025     0.0000   192.0000 </r>
       <r>    -6.6975     0.0000   192.0000 </r>
       <r>    -6.5925     0.0000   192.0000 </r>
       <r>    -6.4875     0.0000   192.0000 </r>
       <r>    -6.3826     0.0000   192.0000 </r>
       <r>    -6.2776     0.0770   192.0081 </r>
       <r>    -6.1726     0.6280   192.0740 </r>
       <r>    -6.0676     2.4893   192.3354 </r>
       <r>    -5.9626     4.4442   192.8019 </r>
       <r>    -5.8576     3.3922   193.1581 </r>
       <r>    -5.7526     3.9033   193.5679 </r>
       <r>    -5.6476     9.9139   194.6087 </r>
       <r>    -5.5427     8.7574   195.5281 </r>
       <r>    -5.4377     5.0369   196.0569 </r>
       <r>    -5.3327     9.1169   197.0141 </r>
       <r>    -5.2277     7.9380   197.8475 </r>
       <r>    -5.1227    11.7322   199.0792 </r>
       <r>    -5.0177     9.8011   200.1082 </r>
       <r>    -4.9127    11.6815   201.3346 </r>
       <r>    -4.8077    14.3279   202.8389 </r>
       <r>    -4.7028     9.1371   203.7981 </r>
       <r>    -4.5978    17.9495   205.6826 </r>
       <r>    -4.4928     8.0946   206.5324 </r>
       <r>    -4.3878     6.6858   207.2343 </r>
       <r>    -4.2828     8.5395   208.1309 </r>
       <r>    -4.1778    14.7823   209.6828 </r>
       <r>    -4.0728    10.9679   210.8343 </r>
       <r>    -3.9679    27.0159   213.6707 </r>
       <r>    -3.8629    38.1648   217.6775 </r>
       <r>    -3.7579    36.2683   221.4852 </r>
       <r>    -3.6529    16.7427   223.2429 </r>
       <r>    -3.5479    18.2411   225.1580 </r>
       <r>    -3.4429     8.9640   226.0991 </r>
       <r>    -3.3379    14.2861   227.5990 </r>
       <r>    -3.2329    14.9955   229.1733 </r>
       <r>    -3.1280    15.7649   230.8284 </r>
       <r>    -3.0230     9.6134   231.8377 </r>
       <r>    -2.9180     4.0923   232.2673 </r>
       <r>    -2.8130     6.7684   232.9779 </r>
       <r>    -2.7080    10.2074   234.0496 </r>
       <r>    -2.6030     6.0518   234.6849 </r>
       <r>    -2.4980     0.6195   234.7500 </r>
       <r>    -2.3930     0.2256   234.7737 </r>
       <r>    -2.2881    12.5113   236.0872 </r>
       <r>    -2.1831     9.6607   237.1014 </r>
       <r>    -2.0781     6.1214   237.7441 </r>
       <r>    -1.9731     0.8769   237.8362 </r>
       <r>    -1.8681     3.2757   238.1801 </r>
       <r>    -1.7631     2.8990   238.4844 </r>
       <r>    -1.6581     5.9043   239.1043 </r>
       <r>    -1.5531     1.9947   239.3137 </r>
       <r>    -1.4482     2.9602   239.6245 </r>
       <r>    -1.3432     2.1395   239.8491 </r>
       <r>    -1.2382     0.3170   239.8824 </r>
       <r>    -1.1332     0.6914   239.9550 </r>
       <r>    -1.0282     0.3661   239.9934 </r>
       <r>    -0.9232     0.0625   240.0000 </r>
       <r>    -0.8182     0.0000   240.0000 </r>
       <r>    -0.7133     0.0000   240.0000 </r>
       <r>    -0.6083     0.0000   240.0000 </r>
       <r>    -0.5033     0.0000   240.0000 </r>
       <r>    -0.3983     0.0000   240.0000 </r>
       <r>    -0.2933     0.0000   240.0000 </r>
       <r>    -0.1883     0.0000   240.0000 </r>
       <r>    -0.0833     0.0000   240.0000 </r>
       <r>     0.0217     0.0000   240.0000 </r>
       <r>     0.1266     0.0000   240.0000 </r>
       <r>     0.2316     0.0000   240.0000 </r>
       <r>     0.3366     0.0000   240.0000 </r>
       <r>     0.4416     0.0000   240.0000 </r>
       <r>     0.5466     0.0000   240.0000 </r>
       <r>     0.6516     0.1949   240.0205 </r>
       <r>     0.7566     2.4313   240.2757 </r>
       <r>     0.8616     7.6049   241.0741 </r>
       <r>     0.9665    32.3074   244.4660 </r>
       <r>     1.0715    24.8175   247.0715 </r>
       <r>     1.1765    26.1369   249.8156 </r>
       <r>     1.2815    27.5934   252.7125 </r>
       <r>     1.3865    22.3195   255.0558 </r>
       <r>     1.4915    18.1724   256.9636 </r>
       <r>     1.5965    25.8097   259.6733 </r>
       <r>     1.7015    28.4653   262.6618 </r>
       <r>     1.8064    11.1040   263.8276 </r>
       <r>     1.9114    10.5907   264.9395 </r>
       <r>     2.0164    21.9211   267.2409 </r>
       <r>     2.1214    25.9630   269.9667 </r>
       <r>     2.2264    18.8560   271.9463 </r>
       <r>     2.3314    22.5426   274.3130 </r>
       <r>     2.4364    15.1862   275.9073 </r>
       <r>     2.5413    33.0654   279.3788 </r>
       <r>     2.6463    33.8725   282.9350 </r>
       <r>     2.7513    28.0252   285.8773 </r>
       <r>     2.8563    24.0470   288.4019 </r>
       <r>     2.9613    16.0018   290.0819 </r>
       <r>     3.0663    19.0883   292.0859 </r>
       <r>     3.1713    25.4829   294.7613 </r>
       <r>     3.2763    44.2170   299.4035 </r>
       <r>     3.3812    29.9068   302.5433 </r>
       <r>     3.4862    12.6826   303.8748 </r>
       <r>     3.5912    26.0865   306.6136 </r>
       <r>     3.6962    15.5230   308.2433 </r>
       <r>     3.8012    25.9879   310.9717 </r>
       <r>     3.9062    13.5466   312.3939 </r>
       <r>     4.0112    25.1370   315.0329 </r>
       <r>     4.1162    30.6594   318.2518 </r>
       <r>     4.2211    40.8898   322.5447 </r>
       <r>     4.3261    18.6974   324.5077 </r>
       <r>     4.4311    29.9030   327.6471 </r>
       <r>     4.5361    30.6612   330.8661 </r>
       <r>     4.6411    27.7627   333.7808 </r>
       <r>     4.7461    21.6987   336.0589 </r>
       <r>     4.8511    36.4821   339.8891 </r>
       <r>     4.9561    24.3397   342.4444 </r>
       <r>     5.0610    17.5200   344.2838 </r>
       <r>     5.1660    17.8093   346.1535 </r>
       <r>     5.2710     9.0607   347.1048 </r>
       <r>     5.3760    14.0091   348.5756 </r>
       <r>     5.4810    45.4560   353.3479 </r>
       <r>     5.5860    38.1289   357.3509 </r>
       <r>     5.6910    46.7616   362.2603 </r>
       <r>     5.7959    45.6454   367.0524 </r>
       <r>     5.9009    25.9912   369.7812 </r>
       <r>     6.0059    25.4146   372.4494 </r>
       <r>     6.1109    24.1725   374.9872 </r>
       <r>     6.2159    12.4838   376.2978 </r>
       <r>     6.3209    26.9953   379.1320 </r>
       <r>     6.4259    28.1554   382.0880 </r>
       <r>     6.5309    13.9193   383.5493 </r>
       <r>     6.6358     3.5964   383.9269 </r>
       <r>     6.7408     0.6959   383.9999 </r>
       <r>     6.8458     0.0005   384.0000 </r>
       <r>     6.9508     0.0000   384.0000 </r>
       <r>     7.0558     0.0040   384.0004 </r>
       <r>     7.1608     0.2895   384.0308 </r>
       <r>     7.2658     0.1035   384.0417 </r>
       <r>     7.3708     0.2274   384.0656 </r>
       <r>     7.4757     0.5957   384.1281 </r>
       <r>     7.5807     0.6841   384.1999 </r>
       <r>     7.6857     0.0931   384.2097 </r>
       <r>     7.7907     0.6388   384.2767 </r>
       <r>     7.8957     0.7635   384.3569 </r>
       <r>     8.0007     1.9275   384.5593 </r>
       <r>     8.1057     4.9578   385.0798 </r>
       <r>     8.2107     4.3335   385.5347 </r>
       <r>     8.3156     2.7877   385.8274 </r>
       <r>     8.4206     6.4795   386.5077 </r>
       <r>     8.5256    10.5744   387.6178 </r>
       <r>     8.6306     8.2040   388.4792 </r>
       <r>     8.7356     8.4797   389.3694 </r>
       <r>     8.8406     7.2855   390.1343 </r>
       <r>     8.9456    10.1857   391.2037 </r>
       <r>     9.0505     6.7009   391.9072 </r>
       <r>     9.1555    20.6413   394.0743 </r>
       <r>     9.2605    29.6608   397.1883 </r>
       <r>     9.3655    21.6344   399.4596 </r>
       <r>     9.4705    21.0120   401.6656 </r>
       <r>     9.5755    18.2657   403.5832 </r>
       <r>     9.6805    28.0575   406.5289 </r>
       <r>     9.7855    21.4317   408.7790 </r>
       <r>     9.8904    18.8290   410.7558 </r>
       <r>     9.9954    23.1190   413.1830 </r>
       <r>    10.1004    29.6257   416.2933 </r>
       <r>    10.2054    29.1558   419.3543 </r>
       <r>    10.3104    20.3721   421.4931 </r>
       <r>    10.4154    25.0830   424.1265 </r>
       <r>    10.5204    21.2196   426.3542 </r>
       <r>    10.6254    31.5515   429.6667 </r>
       <r>    10.7303    23.7016   432.1551 </r>
       <r>    10.8353    24.0255   434.6775 </r>
       <r>    10.9403    18.4990   436.6196 </r>
       <r>    11.0453    17.3453   438.4407 </r>
       <r>    11.1503    14.7325   439.9874 </r>
       <r>    11.2553    18.3174   441.9105 </r>
       <r>    11.3603    17.0655   443.7021 </r>
       <r>    11.4653    24.9191   446.3183 </r>
       <r>    11.5702    34.1591   449.9046 </r>
       <r>    11.6752    33.1921   453.3893 </r>
       <r>    11.7802    29.2667   456.4619 </r>
       <r>    11.8852    32.5434   459.8786 </r>
       <r>    11.9902    28.0552   462.8240 </r>
       <r>    12.0952     6.9600   463.5547 </r>
       <r>    12.2002     2.5230   463.8196 </r>
       <r>    12.3051     1.6906   463.9971 </r>
       <r>    12.4101     0.0278   464.0000 </r>
       <r>    12.5151     0.0000   464.0000 </r>
       <r>    12.6201     0.0000   464.0000 </r>
       <r>    12.7251     0.0000   464.0000 </r>
       <r>    12.8301     0.0000   464.0000 </r>
       <r>    12.9351     0.0000   464.0000 </r>
       <r>    13.0401     0.0000   464.0000 </r>
       <r>    13.1450     0.0000   464.0000 </r>
       <r>    13.2500     0.0000   464.0000 </r>
       <r>    13.3550     0.0000   464.0000 </r>
       <r>    13.4600     0.0000   464.0000 </r>
       <r>    13.5650     0.0000   464.0000 </r>
       <r>    13.6700     0.0000   464.0000 </r>
      </set>
     </set>
    </array>
   </total>
  </dos>
 </calculation>
 <structure name="finalpos" >
  <crystal>
   <varray name="basis" >
    <v>       7.76175746       0.00000000       0.00000000 </v>
    <v>       0.00000000       7.76175746       0.00000000 </v>
    <v>       0.00000000       0.00000000      12.24897479 </v>
   </varray>
   <i name="volume">    737.93800204 </i>
   <varray name="rec_basis" >
    <v>       0.12883680       0.00000000       0.00000000 </v>
    <v>       0.00000000       0.12883680       0.00000000 </v>
    <v>       0.00000000       0.00000000       0.08163949 </v>
   </varray>
  </crystal>
  <varray name="positions" >
   <v>       0.24884212       0.24884212       0.85570155 </v>
   <v>       0.75115788       0.24884212       0.85570155 </v>
   <v>       0.24884212       0.75115788       0.85570155 </v>
   <v>       0.75115788       0.75115788       0.85570155 </v>
   <v>       0.00000000       1.00000000       0.64526093 </v>
   <v>       0.50000000       0.00000000       0.64608654 </v>
   <v>       0.00000000       0.50000000       0.64608654 </v>
   <v>       0.50000000       0.50000000       0.64700544 </v>
   <v>       0.00000000       1.00000000       0.35473907 </v>
   <v>       0.50000000       0.00000000       0.35391346 </v>
   <v>       0.00000000       0.50000000       0.35391346 </v>
   <v>       0.50000000       0.50000000       0.35299456 </v>
   <v>       0.24884212       0.24884212       0.14429845 </v>
   <v>       0.75115788       0.24884212       0.14429845 </v>
   <v>       0.24884212       0.75115788       0.14429845 </v>
   <v>       0.75115788       0.75115788       0.14429845 </v>
   <v>       0.50000000       1.00000000       0.00000000 </v>
   <v>       1.00000000       0.50000000       0.00000000 </v>
   <v>       0.50000000       0.50000000       0.00000000 </v>
   <v>       0.25027776       0.25027776       0.50000000 </v>
   <v>       0.74972224       0.25027776       0.50000000 </v>
   <v>       0.25027776       0.74972224       0.50000000 </v>
   <v>       0.74972224       0.74972224       0.50000000 </v>
   <v>       0.00000000       0.24948077       0.75039762 </v>
   <v>       0.50000000       0.24961519       0.75145912 </v>
   <v>       0.00000000       0.75051923       0.75039762 </v>
   <v>       0.50000000       0.75038481       0.75145912 </v>
   <v>       0.24948077       0.00000000       0.75039762 </v>
   <v>       0.75051923       0.00000000       0.75039762 </v>
   <v>       0.24961519       0.50000000       0.75145912 </v>
   <v>       0.75038481       0.50000000       0.75145912 </v>
   <v>       0.24948077       1.00000000       0.24960238 </v>
   <v>       0.75051923       0.00000000       0.24960238 </v>
   <v>       0.24961519       0.50000000       0.24854088 </v>
   <v>       0.75038481       0.50000000       0.24854088 </v>
   <v>       0.00000000       0.24948077       0.24960238 </v>
   <v>       0.50000000       0.24961519       0.24854088 </v>
   <v>       1.00000000       0.75051923       0.24960238 </v>
   <v>       0.50000000       0.75038481       0.24854088 </v>
   <v>       0.00000000       0.00000000       0.00000000 </v>
  </varray>
 </structure>
</modeling>
