unknown system                          
           1
     7.761757    0.000000    0.000000
     0.000000    7.761757    0.000000
     0.000000    0.000000   12.248975
   Bi   Se   O    S 
    16     7    16     1
Direct configuration=     1
   0.24884207  0.24884207  0.85570156
   0.75115793  0.24884207  0.85570156
   0.24884207  0.75115793  0.85570156
   0.75115793  0.75115793  0.85570156
   0.00000000  0.00000000  0.64526080
   0.50000000  0.00000000  0.64608657
   0.00000000  0.50000000  0.64608657
   0.50000000  0.50000000  0.64700562
   0.00000000  0.00000000  0.35473920
   0.50000000  0.00000000  0.35391343
   0.00000000  0.50000000  0.35391343
   0.50000000  0.50000000  0.35299438
   0.24884207  0.24884207  0.14429844
   0.75115793  0.24884207  0.14429844
   0.24884207  0.75115793  0.14429844
   0.75115793  0.75115793  0.14429844
   0.50000000  0.00000000  0.00000000
   0.00000000  0.50000000  0.00000000
   0.50000000  0.50000000  0.00000000
   0.25027774  0.25027774  0.50000000
   0.74972226  0.25027774  0.50000000
   0.25027774  0.74972226  0.50000000
   0.74972226  0.74972226  0.50000000
   0.00000000  0.24948075  0.75039761
   0.50000000  0.24961517  0.75145914
   0.00000000  0.75051925  0.75039761
   0.50000000  0.75038483  0.75145914
   0.24948075  0.00000000  0.75039761
   0.75051925  0.00000000  0.75039761
   0.24961517  0.50000000  0.75145914
   0.75038483  0.50000000  0.75145914
   0.24948075  0.00000000  0.24960239
   0.75051925  0.00000000  0.24960239
   0.24961517  0.50000000  0.24854086
   0.75038483  0.50000000  0.24854086
   0.00000000  0.24948075  0.24960239
   0.50000000  0.24961517  0.24854086
   0.00000000  0.75051925  0.24960239
   0.50000000  0.75038483  0.24854086
   0.00000000  0.00000000  0.00000000
Direct configuration=     2
   0.24884209  0.24884209  0.85570158
   0.75115791  0.24884209  0.85570158
   0.24884209  0.75115791  0.85570158
   0.75115791  0.75115791  0.85570158
   1.00000000  0.00000000  0.64526086
   0.50000000  0.00000000  0.64608652
   1.00000000  0.50000000  0.64608652
   0.50000000  0.50000000  0.64700547
   1.00000000  0.00000000  0.35473914
   0.50000000  0.00000000  0.35391348
   0.00000000  0.50000000  0.35391348
   0.50000000  0.50000000  0.35299453
   0.24884209  0.24884209  0.14429842
   0.75115791  0.24884209  0.14429842
   0.24884209  0.75115791  0.14429842
   0.75115791  0.75115791  0.14429842
   0.50000000  0.00000000  1.00000000
   0.00000000  0.50000000  1.00000000
   0.50000000  0.50000000  1.00000000
   0.25027775  0.25027775  0.50000000
   0.74972225  0.25027775  0.50000000
   0.25027775  0.74972225  0.50000000
   0.74972225  0.74972225  0.50000000
   1.00000000  0.24948076  0.75039762
   0.50000000  0.24961518  0.75145913
   0.00000000  0.75051924  0.75039762
   0.50000000  0.75038482  0.75145913
   0.24948076  1.00000000  0.75039762
   0.75051924  1.00000000  0.75039762
   0.24961518  0.50000000  0.75145913
   0.75038482  0.50000000  0.75145913
   0.24948076  0.00000000  0.24960238
   0.75051924  1.00000000  0.24960238
   0.24961518  0.50000000  0.24854087
   0.75038482  0.50000000  0.24854087
   1.00000000  0.24948076  0.24960238
   0.50000000  0.24961518  0.24854087
   0.00000000  0.75051924  0.24960238
   0.50000000  0.75038482  0.24854087
   1.00000000  0.00000000  1.00000000
Direct configuration=     3
   0.24884208  0.24884208  0.85570157
   0.75115792  0.24884208  0.85570157
   0.24884208  0.75115792  0.85570157
   0.75115792  0.75115792  0.85570157
   0.00000000  0.00000000  0.64526083
   0.50000000  0.00000000  0.64608655
   0.00000000  0.50000000  0.64608655
   0.50000000  0.50000000  0.64700555
   0.00000000  0.00000000  0.35473917
   0.50000000  0.00000000  0.35391345
   0.00000000  0.50000000  0.35391345
   0.50000000  0.50000000  0.35299445
   0.24884208  0.24884208  0.14429843
   0.75115792  0.24884208  0.14429843
   0.24884208  0.75115792  0.14429843
   0.75115792  0.75115792  0.14429843
   0.50000000  0.00000000  0.00000000
   0.00000000  0.50000000  0.00000000
   0.50000000  0.50000000  0.00000000
   0.25027775  0.25027775  0.50000000
   0.74972225  0.25027775  0.50000000
   0.25027775  0.74972225  0.50000000
   0.74972225  0.74972225  0.50000000
   0.00000000  0.24948076  0.75039762
   0.50000000  0.24961517  0.75145914
   0.00000000  0.75051924  0.75039762
   0.50000000  0.75038483  0.75145914
   0.24948076  0.00000000  0.75039762
   0.75051924  0.00000000  0.75039762
   0.24961517  0.50000000  0.75145914
   0.75038483  0.50000000  0.75145914
   0.24948076  0.00000000  0.24960238
   0.75051924  0.00000000  0.24960238
   0.24961517  0.50000000  0.24854086
   0.75038483  0.50000000  0.24854086
   0.00000000  0.24948076  0.24960238
   0.50000000  0.24961517  0.24854086
   0.00000000  0.75051924  0.24960238
   0.50000000  0.75038483  0.24854086
   0.00000000  0.00000000  0.00000000
Direct configuration=     4
   0.24884208  0.24884208  0.85570158
   0.75115792  0.24884208  0.85570158
   0.24884208  0.75115792  0.85570158
   0.75115792  0.75115792  0.85570158
   1.00000000  0.00000000  0.64526084
   0.50000000  0.00000000  0.64608653
   1.00000000  0.50000000  0.64608653
   0.50000000  0.50000000  0.64700551
   1.00000000  0.00000000  0.35473916
   0.50000000  0.00000000  0.35391347
   0.00000000  0.50000000  0.35391347
   0.50000000  0.50000000  0.35299449
   0.24884208  0.24884208  0.14429842
   0.75115792  0.24884208  0.14429842
   0.24884208  0.75115792  0.14429842
   0.75115792  0.75115792  0.14429842
   0.50000000  0.00000000  1.00000000
   0.00000000  0.50000000  1.00000000
   0.50000000  0.50000000  1.00000000
   0.25027775  0.25027775  0.50000000
   0.74972225  0.25027775  0.50000000
   0.25027775  0.74972225  0.50000000
   0.74972225  0.74972225  0.50000000
   1.00000000  0.24948076  0.75039762
   0.50000000  0.24961517  0.75145914
   0.00000000  0.75051924  0.75039762
   0.50000000  0.75038483  0.75145914
   0.24948076  1.00000000  0.75039762
   0.75051924  1.00000000  0.75039762
   0.24961517  0.50000000  0.75145914
   0.75038483  0.50000000  0.75145914
   0.24948076  0.00000000  0.24960238
   0.75051924  1.00000000  0.24960238
   0.24961517  0.50000000  0.24854086
   0.75038483  0.50000000  0.24854086
   1.00000000  0.24948076  0.24960238
   0.50000000  0.24961517  0.24854086
   0.00000000  0.75051924  0.24960238
   0.50000000  0.75038483  0.24854086
   1.00000000  0.00000000  1.00000000
Direct configuration=     5
   0.24884208  0.24884208  0.85570157
   0.75115792  0.24884208  0.85570157
   0.24884208  0.75115792  0.85570157
   0.75115792  0.75115792  0.85570157
   0.00000000  0.00000000  0.64526084
   0.50000000  0.00000000  0.64608654
   0.00000000  0.50000000  0.64608654
   0.50000000  0.50000000  0.64700552
   0.00000000  0.00000000  0.35473916
   0.50000000  0.00000000  0.35391346
   0.00000000  0.50000000  0.35391346
   0.50000000  0.50000000  0.35299448
   0.24884208  0.24884208  0.14429843
   0.75115792  0.24884208  0.14429843
   0.24884208  0.75115792  0.14429843
   0.75115792  0.75115792  0.14429843
   0.50000000  0.00000000  0.00000000
   0.00000000  0.50000000  0.00000000
   0.50000000  0.50000000  0.00000000
   0.25027775  0.25027775  0.50000000
   0.74972225  0.25027775  0.50000000
   0.25027775  0.74972225  0.50000000
   0.74972225  0.74972225  0.50000000
   0.00000000  0.24948076  0.75039762
   0.50000000  0.24961517  0.75145914
   0.00000000  0.75051924  0.75039762
   0.50000000  0.75038483  0.75145914
   0.24948076  0.00000000  0.75039762
   0.75051924  0.00000000  0.75039762
   0.24961517  0.50000000  0.75145914
   0.75038483  0.50000000  0.75145914
   0.24948076  0.00000000  0.24960238
   0.75051924  0.00000000  0.24960238
   0.24961517  0.50000000  0.24854086
   0.75038483  0.50000000  0.24854086
   0.00000000  0.24948076  0.24960238
   0.50000000  0.24961517  0.24854086
   0.00000000  0.75051924  0.24960238
   0.50000000  0.75038483  0.24854086
   0.00000000  0.00000000  0.00000000
Direct configuration=     6
   0.24884208  0.24884208  0.85570157
   0.75115792  0.24884208  0.85570157
   0.24884208  0.75115792  0.85570157
   0.75115792  0.75115792  0.85570157
   1.00000000  0.00000000  0.64526084
   0.50000000  0.00000000  0.64608654
   1.00000000  0.50000000  0.64608654
   0.50000000  0.50000000  0.64700552
   1.00000000  0.00000000  0.35473916
   0.50000000  0.00000000  0.35391346
   0.00000000  0.50000000  0.35391346
   0.50000000  0.50000000  0.35299448
   0.24884208  0.24884208  0.14429843
   0.75115792  0.24884208  0.14429843
   0.24884208  0.75115792  0.14429843
   0.75115792  0.75115792  0.14429843
   0.50000000  0.00000000  1.00000000
   0.00000000  0.50000000  1.00000000
   0.50000000  0.50000000  1.00000000
   0.25027775  0.25027775  0.50000000
   0.74972225  0.25027775  0.50000000
   0.25027775  0.74972225  0.50000000
   0.74972225  0.74972225  0.50000000
   1.00000000  0.24948076  0.75039762
   0.50000000  0.24961517  0.75145914
   0.00000000  0.75051924  0.75039762
   0.50000000  0.75038483  0.75145914
   0.24948076  1.00000000  0.75039762
   0.75051924  1.00000000  0.75039762
   0.24961517  0.50000000  0.75145914
   0.75038483  0.50000000  0.75145914
   0.24948076  0.00000000  0.24960238
   0.75051924  1.00000000  0.24960238
   0.24961517  0.50000000  0.24854086
   0.75038483  0.50000000  0.24854086
   1.00000000  0.24948076  0.24960238
   0.50000000  0.24961517  0.24854086
   0.00000000  0.75051924  0.24960238
   0.50000000  0.75038483  0.24854086
   1.00000000  0.00000000  1.00000000
Direct configuration=     7
   0.24884213  0.24884213  0.85570155
   0.75115787  0.24884213  0.85570155
   0.24884213  0.75115787  0.85570155
   0.75115787  0.75115787  0.85570155
   0.00000000  1.00000000  0.64526094
   0.50000000  0.00000000  0.64608654
   0.00000000  0.50000000  0.64608654
   0.50000000  0.50000000  0.64700543
   0.00000000  1.00000000  0.35473906
   0.50000000  0.00000000  0.35391346
   0.00000000  0.50000000  0.35391346
   0.50000000  0.50000000  0.35299457
   0.24884213  0.24884213  0.14429845
   0.75115787  0.24884213  0.14429845
   0.24884213  0.75115787  0.14429845
   0.75115787  0.75115787  0.14429845
   0.50000000  1.00000000  0.00000000
   1.00000000  0.50000000  0.00000000
   0.50000000  0.50000000  0.00000000
   0.25027776  0.25027776  0.50000000
   0.74972224  0.25027776  0.50000000
   0.25027776  0.74972224  0.50000000
   0.74972224  0.74972224  0.50000000
   0.00000000  0.24948077  0.75039762
   0.50000000  0.24961519  0.75145912
   0.00000000  0.75051923  0.75039762
   0.50000000  0.75038481  0.75145912
   0.24948077  0.00000000  0.75039762
   0.75051923  0.00000000  0.75039762
   0.24961519  0.50000000  0.75145912
   0.75038481  0.50000000  0.75145912
   0.24948077  1.00000000  0.24960238
   0.75051923  0.00000000  0.24960238
   0.24961519  0.50000000  0.24854088
   0.75038481  0.50000000  0.24854088
   0.00000000  0.24948077  0.24960238
   0.50000000  0.24961519  0.24854088
   1.00000000  0.75051923  0.24960238
   0.50000000  0.75038481  0.24854088
   0.00000000  0.00000000  0.00000000
Direct configuration=     8
   0.24884211  0.24884211  0.85570156
   0.75115789  0.24884211  0.85570156
   0.24884211  0.75115789  0.85570156
   0.75115789  0.75115789  0.85570156
   1.00000000  0.00000000  0.64526090
   0.50000000  0.00000000  0.64608654
   1.00000000  0.50000000  0.64608654
   0.50000000  0.50000000  0.64700546
   0.00000000  0.00000000  0.35473910
   0.50000000  0.00000000  0.35391346
   0.00000000  0.50000000  0.35391346
   0.50000000  0.50000000  0.35299454
   0.24884211  0.24884211  0.14429844
   0.75115789  0.24884211  0.14429844
   0.24884211  0.75115789  0.14429844
   0.75115789  0.75115789  0.14429844
   0.50000000  0.00000000  1.00000000
   0.00000000  0.50000000  1.00000000
   0.50000000  0.50000000  1.00000000
   0.25027776  0.25027776  0.50000000
   0.74972224  0.25027776  0.50000000
   0.25027776  0.74972224  0.50000000
   0.74972224  0.74972224  0.50000000
   0.00000000  0.24948077  0.75039762
   0.50000000  0.24961518  0.75145912
   0.00000000  0.75051923  0.75039762
   0.50000000  0.75038482  0.75145912
   0.24948077  0.00000000  0.75039762
   0.75051923  0.00000000  0.75039762
   0.24961518  0.50000000  0.75145912
   0.75038482  0.50000000  0.75145912
   0.24948077  0.00000000  0.24960238
   0.75051923  0.00000000  0.24960238
   0.24961518  0.50000000  0.24854088
   0.75038482  0.50000000  0.24854088
   0.00000000  0.24948077  0.24960238
   0.50000000  0.24961518  0.24854088
   0.00000000  0.75051923  0.24960238
   0.50000000  0.75038482  0.24854088
   0.00000000  0.00000000  1.00000000
Direct configuration=     9
   0.24884212  0.24884212  0.85570155
   0.75115788  0.24884212  0.85570155
   0.24884212  0.75115788  0.85570155
   0.75115788  0.75115788  0.85570155
   0.00000000  1.00000000  0.64526093
   0.50000000  0.00000000  0.64608654
   0.00000000  0.50000000  0.64608654
   0.50000000  0.50000000  0.64700544
   0.00000000  1.00000000  0.35473907
   0.50000000  0.00000000  0.35391346
   0.00000000  0.50000000  0.35391346
   0.50000000  0.50000000  0.35299456
   0.24884212  0.24884212  0.14429845
   0.75115788  0.24884212  0.14429845
   0.24884212  0.75115788  0.14429845
   0.75115788  0.75115788  0.14429845
   0.50000000  1.00000000  0.00000000
   1.00000000  0.50000000  0.00000000
   0.50000000  0.50000000  0.00000000
   0.25027776  0.25027776  0.50000000
   0.74972224  0.25027776  0.50000000
   0.25027776  0.74972224  0.50000000
   0.74972224  0.74972224  0.50000000
   0.00000000  0.24948077  0.75039762
   0.50000000  0.24961519  0.75145912
   0.00000000  0.75051923  0.75039762
   0.50000000  0.75038481  0.75145912
   0.24948077  0.00000000  0.75039762
   0.75051923  0.00000000  0.75039762
   0.24961519  0.50000000  0.75145912
   0.75038481  0.50000000  0.75145912
   0.24948077  1.00000000  0.24960238
   0.75051923  0.00000000  0.24960238
   0.24961519  0.50000000  0.24854088
   0.75038481  0.50000000  0.24854088
   0.00000000  0.24948077  0.24960238
   0.50000000  0.24961519  0.24854088
   1.00000000  0.75051923  0.24960238
   0.50000000  0.75038481  0.24854088
   0.00000000  0.00000000  0.00000000
Direct configuration=    10
   0.24884212  0.24884212  0.85570155
   0.75115788  0.24884212  0.85570155
   0.24884212  0.75115788  0.85570155
   0.75115788  0.75115788  0.85570155
   1.00000000  0.00000000  0.64526093
   0.50000000  0.00000000  0.64608654
   1.00000000  0.50000000  0.64608654
   0.50000000  0.50000000  0.64700544
   0.00000000  0.00000000  0.35473907
   0.50000000  0.00000000  0.35391346
   0.00000000  0.50000000  0.35391346
   0.50000000  0.50000000  0.35299456
   0.24884212  0.24884212  0.14429845
   0.75115788  0.24884212  0.14429845
   0.24884212  0.75115788  0.14429845
   0.75115788  0.75115788  0.14429845
   0.50000000  0.00000000  1.00000000
   0.00000000  0.50000000  1.00000000
   0.50000000  0.50000000  1.00000000
   0.25027776  0.25027776  0.50000000
   0.74972224  0.25027776  0.50000000
   0.25027776  0.74972224  0.50000000
   0.74972224  0.74972224  0.50000000
   0.00000000  0.24948077  0.75039762
   0.50000000  0.24961519  0.75145912
   0.00000000  0.75051923  0.75039762
   0.50000000  0.75038481  0.75145912
   0.24948077  0.00000000  0.75039762
   0.75051923  0.00000000  0.75039762
   0.24961519  0.50000000  0.75145912
   0.75038481  0.50000000  0.75145912
   0.24948077  0.00000000  0.24960238
   0.75051923  0.00000000  0.24960238
   0.24961519  0.50000000  0.24854088
   0.75038481  0.50000000  0.24854088
   0.00000000  0.24948077  0.24960238
   0.50000000  0.24961519  0.24854088
   0.00000000  0.75051923  0.24960238
   0.50000000  0.75038481  0.24854088
   0.00000000  0.00000000  1.00000000
Direct configuration=    11
   0.24884212  0.24884212  0.85570155
   0.75115788  0.24884212  0.85570155
   0.24884212  0.75115788  0.85570155
   0.75115788  0.75115788  0.85570155
   0.00000000  1.00000000  0.64526093
   0.50000000  0.00000000  0.64608654
   0.00000000  0.50000000  0.64608654
   0.50000000  0.50000000  0.64700544
   0.00000000  1.00000000  0.35473907
   0.50000000  0.00000000  0.35391346
   0.00000000  0.50000000  0.35391346
   0.50000000  0.50000000  0.35299456
   0.24884212  0.24884212  0.14429845
   0.75115788  0.24884212  0.14429845
   0.24884212  0.75115788  0.14429845
   0.75115788  0.75115788  0.14429845
   0.50000000  1.00000000  0.00000000
   1.00000000  0.50000000  0.00000000
   0.50000000  0.50000000  0.00000000
   0.25027776  0.25027776  0.50000000
   0.74972224  0.25027776  0.50000000
   0.25027776  0.74972224  0.50000000
   0.74972224  0.74972224  0.50000000
   0.00000000  0.24948077  0.75039762
   0.50000000  0.24961519  0.75145912
   0.00000000  0.75051923  0.75039762
   0.50000000  0.75038481  0.75145912
   0.24948077  0.00000000  0.75039762
   0.75051923  0.00000000  0.75039762
   0.24961519  0.50000000  0.75145912
   0.75038481  0.50000000  0.75145912
   0.24948077  1.00000000  0.24960238
   0.75051923  0.00000000  0.24960238
   0.24961519  0.50000000  0.24854088
   0.75038481  0.50000000  0.24854088
   0.00000000  0.24948077  0.24960238
   0.50000000  0.24961519  0.24854088
   1.00000000  0.75051923  0.24960238
   0.50000000  0.75038481  0.24854088
   0.00000000  0.00000000  0.00000000
