  40  40   0   0
  0.1735280E+02  0.7604954E-09  0.7604954E-09  0.1200152E-08  0.5000000E-15
  1.000000000000000E-004
  CAR 
 unknown system                          
     14.85522011    -17.08630986  301      7.52197719      1.00000000
    -17.086  0.0000E+00  0.0000E+00
    -16.980  0.0000E+00  0.0000E+00
    -16.873  0.0000E+00  0.0000E+00
    -16.767  0.0000E+00  0.0000E+00
    -16.660  0.0000E+00  0.0000E+00
    -16.554  0.0000E+00  0.0000E+00
    -16.447  0.0000E+00  0.0000E+00
    -16.341  0.0000E+00  0.0000E+00
    -16.235  0.0000E+00  0.0000E+00
    -16.128  0.0000E+00  0.0000E+00
    -16.022  0.0000E+00  0.0000E+00
    -15.915  0.2216E-16  0.2359E-17
    -15.809  0.2433E-07  0.2591E-08
    -15.702  0.6139E-02  0.6537E-03
    -15.596  0.9771E+00  0.1047E+00
    -15.489  0.1423E+01  0.2562E+00
    -15.383  0.3510E+01  0.6299E+00
    -15.276  0.8174E+01  0.1500E+01
    -15.170  0.9368E+00  0.1600E+01
    -15.063  0.3258E-03  0.1600E+01
    -14.957  0.4120E-10  0.1600E+01
    -14.850  0.0000E+00  0.1600E+01
    -14.744  0.0000E+00  0.1600E+01
    -14.637  0.0000E+00  0.1600E+01
    -14.531  0.0000E+00  0.1600E+01
    -14.425  0.0000E+00  0.1600E+01
    -14.318  0.0000E+00  0.1600E+01
    -14.212  0.0000E+00  0.1600E+01
    -14.105  0.0000E+00  0.1600E+01
    -13.999  0.0000E+00  0.1600E+01
    -13.892  0.0000E+00  0.1600E+01
    -13.786  0.0000E+00  0.1600E+01
    -13.679  0.0000E+00  0.1600E+01
    -13.573  0.0000E+00  0.1600E+01
    -13.466  0.0000E+00  0.1600E+01
    -13.360  0.0000E+00  0.1600E+01
    -13.253  0.0000E+00  0.1600E+01
    -13.147  0.0000E+00  0.1600E+01
    -13.040  0.0000E+00  0.1600E+01
    -12.934  0.0000E+00  0.1600E+01
    -12.827  0.0000E+00  0.1600E+01
    -12.721  0.0000E+00  0.1600E+01
    -12.614  0.2477E-12  0.1600E+01
    -12.508  0.2109E-05  0.1600E+01
    -12.402  0.4825E-02  0.1601E+01
    -12.295  0.2833E-01  0.1604E+01
    -12.189  0.8579E-01  0.1613E+01
    -12.082  0.8457E-01  0.1622E+01
    -11.976  0.1185E-01  0.1623E+01
    -11.869  0.8467E-01  0.1632E+01
    -11.763  0.1672E+00  0.1650E+01
    -11.656  0.2586E-01  0.1653E+01
    -11.550  0.1956E-01  0.1655E+01
    -11.443  0.8904E-01  0.1664E+01
    -11.337  0.1551E+00  0.1681E+01
    -11.230  0.1115E+00  0.1692E+01
    -11.124  0.5586E-01  0.1698E+01
    -11.017  0.1303E+00  0.1712E+01
    -10.911  0.5335E-02  0.1713E+01
    -10.804  0.1865E+00  0.1733E+01
    -10.698  0.2107E+00  0.1755E+01
    -10.592  0.1577E+00  0.1772E+01
    -10.485  0.1605E+00  0.1789E+01
    -10.379  0.9369E-01  0.1799E+01
    -10.272  0.3976E+00  0.1841E+01
    -10.166  0.1518E+00  0.1857E+01
    -10.059  0.2641E-01  0.1860E+01
     -9.953  0.1187E+00  0.1873E+01
     -9.846  0.2224E+00  0.1897E+01
     -9.740  0.4064E-01  0.1901E+01
     -9.633  0.1379E+00  0.1916E+01
     -9.527  0.4009E-01  0.1920E+01
     -9.420  0.1023E-02  0.1920E+01
     -9.314  0.2700E-07  0.1920E+01
     -9.207  0.1190E-15  0.1920E+01
     -9.101  0.0000E+00  0.1920E+01
     -8.994  0.0000E+00  0.1920E+01
     -8.888  0.0000E+00  0.1920E+01
     -8.782  0.0000E+00  0.1920E+01
     -8.675  0.0000E+00  0.1920E+01
     -8.569  0.0000E+00  0.1920E+01
     -8.462  0.0000E+00  0.1920E+01
     -8.356  0.0000E+00  0.1920E+01
     -8.249  0.0000E+00  0.1920E+01
     -8.143  0.0000E+00  0.1920E+01
     -8.036  0.0000E+00  0.1920E+01
     -7.930  0.0000E+00  0.1920E+01
     -7.823  0.0000E+00  0.1920E+01
     -7.717  0.0000E+00  0.1920E+01
     -7.610  0.0000E+00  0.1920E+01
     -7.504  0.0000E+00  0.1920E+01
     -7.397  0.0000E+00  0.1920E+01
     -7.291  0.0000E+00  0.1920E+01
     -7.184  0.0000E+00  0.1920E+01
     -7.078  0.0000E+00  0.1920E+01
     -6.971  0.0000E+00  0.1920E+01
     -6.865  0.0000E+00  0.1920E+01
     -6.759  0.0000E+00  0.1920E+01
     -6.652  0.0000E+00  0.1920E+01
     -6.546  0.0000E+00  0.1920E+01
     -6.439  0.0000E+00  0.1920E+01
     -6.333  0.0000E+00  0.1920E+01
     -6.226  0.2574E-14  0.1920E+01
     -6.120  0.8768E-07  0.1920E+01
     -6.013  0.5571E-03  0.1920E+01
     -5.907  0.4372E-02  0.1921E+01
     -5.800  0.2101E-01  0.1923E+01
     -5.694  0.3903E-01  0.1927E+01
     -5.587  0.3103E-01  0.1930E+01
     -5.481  0.2342E-01  0.1933E+01
     -5.374  0.5713E-01  0.1939E+01
     -5.268  0.9606E-01  0.1949E+01
     -5.161  0.6533E-01  0.1956E+01
     -5.055  0.4318E-01  0.1961E+01
     -4.949  0.8098E-01  0.1969E+01
     -4.842  0.6914E-01  0.1977E+01
     -4.736  0.9865E-01  0.1987E+01
     -4.629  0.8343E-01  0.1996E+01
     -4.523  0.8152E-01  0.2005E+01
     -4.416  0.1266E+00  0.2018E+01
     -4.310  0.1076E+00  0.2030E+01
     -4.203  0.8614E-01  0.2039E+01
     -4.097  0.1457E+00  0.2054E+01
     -3.990  0.7858E-01  0.2063E+01
     -3.884  0.7288E-01  0.2070E+01
     -3.777  0.5718E-01  0.2076E+01
     -3.671  0.4762E-01  0.2082E+01
     -3.564  0.1413E+00  0.2097E+01
     -3.458  0.8344E-01  0.2105E+01
     -3.351  0.2232E+00  0.2129E+01
     -3.245  0.3093E+00  0.2162E+01
     -3.139  0.3703E+00  0.2202E+01
     -3.032  0.2219E+00  0.2225E+01
     -2.926  0.7620E-01  0.2233E+01
     -2.819  0.1771E+00  0.2252E+01
     -2.713  0.1076E+00  0.2264E+01
     -2.606  0.1062E+00  0.2275E+01
     -2.500  0.1598E+00  0.2292E+01
     -2.393  0.1255E+00  0.2305E+01
     -2.287  0.1248E+00  0.2319E+01
     -2.180  0.3244E-01  0.2322E+01
     -2.074  0.3223E-01  0.2326E+01
     -1.967  0.8135E-01  0.2334E+01
     -1.861  0.7412E-01  0.2342E+01
     -1.754  0.4609E-01  0.2347E+01
     -1.648  0.5086E-02  0.2348E+01
     -1.541  0.3212E-01  0.2351E+01
     -1.435  0.1193E+00  0.2364E+01
     -1.328  0.9841E-01  0.2374E+01
     -1.222  0.3148E-01  0.2377E+01
     -1.116  0.9100E-02  0.2378E+01
     -1.009  0.3240E-01  0.2382E+01
     -0.903  0.2619E-01  0.2385E+01
     -0.796  0.4995E-01  0.2390E+01
     -0.690  0.2697E-01  0.2393E+01
     -0.583  0.1492E-01  0.2394E+01
     -0.477  0.2814E-01  0.2397E+01
     -0.370  0.1215E-01  0.2399E+01
     -0.264  0.1056E-02  0.2399E+01
     -0.157  0.6688E-02  0.2400E+01
     -0.051  0.3014E-02  0.2400E+01
      0.056  0.1153E-02  0.2400E+01
      0.162  0.7517E-06  0.2400E+01
      0.269  0.1037E-12  0.2400E+01
      0.375  0.0000E+00  0.2400E+01
      0.482  0.0000E+00  0.2400E+01
      0.588  0.0000E+00  0.2400E+01
      0.694  0.0000E+00  0.2400E+01
      0.801  0.0000E+00  0.2400E+01
      0.907  0.4345E-16  0.2400E+01
      1.014  0.9859E-08  0.2400E+01
      1.120  0.4308E-03  0.2400E+01
      1.227  0.1432E-01  0.2402E+01
      1.333  0.6293E-01  0.2408E+01
      1.440  0.2864E+00  0.2439E+01
      1.546  0.2764E+00  0.2468E+01
      1.653  0.1553E+00  0.2485E+01
      1.759  0.1765E+00  0.2504E+01
      1.866  0.2771E+00  0.2533E+01
      1.972  0.2792E+00  0.2563E+01
      2.079  0.2234E+00  0.2587E+01
      2.185  0.2028E+00  0.2608E+01
      2.292  0.1854E+00  0.2628E+01
      2.398  0.1633E+00  0.2645E+01
      2.504  0.1622E+00  0.2663E+01
      2.611  0.1274E+00  0.2676E+01
      2.717  0.2303E+00  0.2701E+01
      2.824  0.3773E+00  0.2741E+01
      2.930  0.1341E+00  0.2755E+01
      3.037  0.2906E+00  0.2786E+01
      3.143  0.2161E+00  0.2809E+01
      3.250  0.2343E+00  0.2834E+01
      3.356  0.2498E+00  0.2861E+01
      3.463  0.2489E+00  0.2887E+01
      3.569  0.1950E+00  0.2908E+01
      3.676  0.1452E+00  0.2923E+01
      3.782  0.2033E+00  0.2945E+01
      3.889  0.2739E+00  0.2974E+01
      3.995  0.3420E+00  0.3010E+01
      4.102  0.2384E+00  0.3036E+01
      4.208  0.2333E+00  0.3061E+01
      4.315  0.1400E+00  0.3076E+01
      4.421  0.1874E+00  0.3096E+01
      4.527  0.2475E+00  0.3122E+01
      4.634  0.1755E+00  0.3141E+01
      4.740  0.1241E+00  0.3154E+01
      4.847  0.2399E+00  0.3179E+01
      4.953  0.4376E+00  0.3226E+01
      5.060  0.2384E+00  0.3251E+01
      5.166  0.2663E+00  0.3280E+01
      5.273  0.3497E+00  0.3317E+01
      5.379  0.3522E+00  0.3354E+01
      5.486  0.2376E+00  0.3380E+01
      5.592  0.3337E+00  0.3415E+01
      5.699  0.3005E+00  0.3447E+01
      5.805  0.1927E+00  0.3468E+01
      5.912  0.5650E-01  0.3474E+01
      6.018  0.3323E+00  0.3509E+01
      6.125  0.3849E+00  0.3550E+01
      6.231  0.2694E+00  0.3579E+01
      6.337  0.4242E+00  0.3624E+01
      6.444  0.2680E+00  0.3653E+01
      6.550  0.3278E+00  0.3687E+01
      6.657  0.3064E+00  0.3720E+01
      6.763  0.1314E+00  0.3734E+01
      6.870  0.1833E+00  0.3754E+01
      6.976  0.1063E+00  0.3765E+01
      7.083  0.2277E+00  0.3789E+01
      7.189  0.2680E+00  0.3818E+01
      7.296  0.2026E+00  0.3839E+01
      7.402  0.7304E-02  0.3840E+01
      7.509  0.2307E-06  0.3840E+01
      7.615  0.1819E-14  0.3840E+01
      7.722  0.2390E-17  0.3840E+01
      7.828  0.1196E-08  0.3840E+01
      7.935  0.9420E-04  0.3840E+01
      8.041  0.3231E-02  0.3840E+01
      8.147  0.5895E-03  0.3840E+01
      8.254  0.2808E-02  0.3841E+01
      8.360  0.1221E-01  0.3842E+01
      8.467  0.6308E-03  0.3842E+01
      8.573  0.3660E-07  0.3842E+01
      8.680  0.2442E-03  0.3842E+01
      8.786  0.1443E-01  0.3844E+01
      8.893  0.3957E-01  0.3848E+01
      8.999  0.6681E-01  0.3855E+01
      9.106  0.1591E-01  0.3857E+01
      9.212  0.1285E-01  0.3858E+01
      9.319  0.1040E+00  0.3869E+01
      9.425  0.8462E-01  0.3878E+01
      9.532  0.7059E-01  0.3886E+01
      9.638  0.8054E-01  0.3894E+01
      9.745  0.5708E-01  0.3900E+01
      9.851  0.1366E+00  0.3915E+01
      9.958  0.6208E-01  0.3921E+01
     10.064  0.2206E+00  0.3945E+01
     10.170  0.3054E+00  0.3977E+01
     10.277  0.1936E+00  0.3998E+01
     10.383  0.1536E+00  0.4014E+01
     10.490  0.1850E+00  0.4034E+01
     10.596  0.2222E+00  0.4058E+01
     10.703  0.2611E+00  0.4086E+01
     10.809  0.1752E+00  0.4104E+01
     10.916  0.2351E+00  0.4129E+01
     11.022  0.3824E+00  0.4170E+01
     11.129  0.2299E+00  0.4194E+01
     11.235  0.1890E+00  0.4215E+01
     11.342  0.1962E+00  0.4235E+01
     11.448  0.2243E+00  0.4259E+01
     11.555  0.2179E+00  0.4283E+01
     11.661  0.2945E+00  0.4314E+01
     11.768  0.1742E+00  0.4332E+01
     11.874  0.1522E+00  0.4349E+01
     11.980  0.1491E+00  0.4365E+01
     12.087  0.1450E+00  0.4380E+01
     12.193  0.1748E+00  0.4399E+01
     12.300  0.1733E+00  0.4417E+01
     12.406  0.1401E+00  0.4432E+01
     12.513  0.3500E+00  0.4469E+01
     12.619  0.3495E+00  0.4506E+01
     12.726  0.2368E+00  0.4532E+01
     12.832  0.1986E+00  0.4553E+01
     12.939  0.3081E+00  0.4586E+01
     13.045  0.2782E+00  0.4615E+01
     13.152  0.1164E+00  0.4628E+01
     13.258  0.8346E-01  0.4636E+01
     13.365  0.1987E-01  0.4639E+01
     13.471  0.1294E-01  0.4640E+01
     13.578  0.3723E-03  0.4640E+01
     13.684  0.4833E-08  0.4640E+01
     13.791  0.1043E-16  0.4640E+01
     13.897  0.0000E+00  0.4640E+01
     14.003  0.0000E+00  0.4640E+01
     14.110  0.0000E+00  0.4640E+01
     14.216  0.0000E+00  0.4640E+01
     14.323  0.0000E+00  0.4640E+01
     14.429  0.0000E+00  0.4640E+01
     14.536  0.0000E+00  0.4640E+01
     14.642  0.0000E+00  0.4640E+01
     14.749  0.0000E+00  0.4640E+01
     14.855  0.0000E+00  0.4640E+01
