 vasp.6.4.3 19Mar24 (build Apr 09 2025 20:43:19) complex                        
  
 executed on             LinuxIFC date 2025.04.12  22:57:04
 running   36 mpi-ranks, on    1 nodes
 distrk:  each k-point on   36 cores,    1 groups
 distr:  one band on NCORE=   9 cores,    4 groups


--------------------------------------------------------------------------------------------------------


 INCAR:
   PREC = Accurate
   IBRION = 2
   NSW = 100
   NELMIN = 5
   ISIF = 2
   ENCUT = 520
   EDIFF = 1.000000e-08
   EDIFFG = -1.000000e-5
   ISMEAR = 0
   SIGMA = 0.05
   IALGO = 38
   LREAL = .FALSE.
   ADDGRID = .TRUE.
   LWAVE = .FALSE.
   LCHARG = .FALSE.
   NCORE = 9

 POTCAR:    PAW_PBE Bi_d 06Sep2000                
 POTCAR:    PAW_PBE Se 06Sep2000                  
 POTCAR:    PAW_PBE O 08Apr2002                   
 POTCAR:    PAW_PBE S 06Sep2000                   
 POTCAR:    PAW_PBE Bi_d 06Sep2000                
   SHA256 =  572e7eac3f9482ff025db24f2820381a7a3856069fa85913dc654793f618f69a Bi_d/POTCAR           
   COPYR  = (c) Copyright 06Sep2000 Georg Kresse                                                    
   COPYR  = This file is part of the software VASP. Any use, copying, and all other rights are regul
   COPYR  = If you do not have a valid VASP license, you may not use, copy or distribute this file. 
   VRHFIN =Bi:                                                                                      
   LEXCH  = PE                                                                                      
   EATOM  =  1959.2045 eV,  143.9975 Ry                                                             
                                                                                                    
   TITEL  = PAW_PBE Bi_d 06Sep2000                                                                  
   LULTRA =        F    use ultrasoft PP ?                                                          
   IUNSCR =        1    unscreen: 0-lin 1-nonlin 2-no                                               
   RPACOR =    2.200    partial core radius                                                         
   POMASS =  208.980; ZVAL   =   15.000    mass and valenz                                          
   RCORE  =    2.500    outmost cutoff radius                                                       
   RWIGS  =    3.090; RWIGS  =    1.635    wigner-seitz radius (au A)                               
   ENMAX  =  242.839; ENMIN  =  182.129 eV                                                          
   ICORE  =        3    local potential                                                             
   LCOR   =        T    correct aug charges                                                         
   LPAW   =        T    paw PP                                                                      
   EAUG   =  442.899                                                                                
   DEXC   =    0.000                                                                                
   RMAX   =    2.551    core radius for proj-oper                                                   
   RAUG   =    1.300    factor for augmentation sphere                                              
   RDEP   =    2.650    radius for radial grids                                                     
   RDEPT  =    2.039    core radius for aug-charge                                                  
                                                                                                    
   Atomic configuration                                                                             
   16 entries                                                                                       
     n  l   j            E        occ.                                                              
     1  0  0.50    -90639.6581   2.0000                                                             
     2  0  0.50    -16282.4666   2.0000                                                             
     2  1  1.50    -13922.8286   6.0000                                                             
     3  0  0.50     -3930.4763   2.0000                                                             
     3  1  1.50     -3256.7013   6.0000                                                             
     3  2  2.50     -2581.6168  10.0000                                                             
     4  0  0.50      -902.2614   2.0000                                                             
     4  1  1.50      -681.5915   6.0000                                                             
     4  2  2.50      -429.8249  10.0000                                                             
     4  3  3.50      -152.6004  14.0000                                                             
     5  0  0.50      -157.7156   2.0000                                                             
     5  1  1.50       -95.8054   6.0000                                                             
     5  2  2.50       -27.0806  10.0000                                                             
     6  0  0.50       -14.4732   2.0000                                                             
     6  1  1.50        -4.5702   3.0000                                                             
     5  3  2.50        -2.7212   0.0000                                                             
   Description                                                                                      
     l       E           TYP  RCUT    TYP  RCUT                                                     
     2    -27.0805982     23  2.500                                                                 
     2     -1.3605826     23  2.500                                                                 
     0    -14.4732271     23  2.500                                                                 
     0      6.8029130     23  2.500                                                                 
     1     -4.5701651     23  2.500                                                                 
     1     13.6058260     23  2.500                                                                 
     3     -1.3605826      7  2.500                                                                 
  local pseudopotential read in
  partial core-charges read in
  partial kinetic energy density read in
  atomic valenz-charges read in
  non local Contribution for L=           2  read in
    real space projection operators read in
  non local Contribution for L=           2  read in
    real space projection operators read in
  non local Contribution for L=           0  read in
    real space projection operators read in
  non local Contribution for L=           0  read in
    real space projection operators read in
  non local Contribution for L=           1  read in
    real space projection operators read in
  non local Contribution for L=           1  read in
    real space projection operators read in
    PAW grid and wavefunctions read in
 
   number of l-projection  operators is LMAX  =           6
   number of lm-projection operators is LMMAX =          18
 
 POTCAR:    PAW_PBE Se 06Sep2000                  
   SHA256 =  eabb916e6b4c819dc065ce039373bc328651da483898f08fb9e49c498452bf12 Se/POTCAR             
   COPYR  = (c) Copyright 06Sep2000 Georg Kresse                                                    
   COPYR  = This file is part of the software VASP. Any use, copying, and all other rights are regul
   COPYR  = If you do not have a valid VASP license, you may not use, copy or distribute this file. 
   VRHFIN =Se: s2p4                                                                                 
   LEXCH  = PE                                                                                      
   EATOM  =   257.1286 eV,   18.8984 Ry                                                             
                                                                                                    
   TITEL  = PAW_PBE Se 06Sep2000                                                                    
   LULTRA =        F    use ultrasoft PP ?                                                          
   IUNSCR =        1    unscreen: 0-lin 1-nonlin 2-no                                               
   RPACOR =    1.900    partial core radius                                                         
   POMASS =   78.960; ZVAL   =    6.000    mass and valenz                                          
   RCORE  =    2.100    outmost cutoff radius                                                       
   RWIGS  =    2.200; RWIGS  =    1.164    wigner-seitz radius (au A)                               
   ENMAX  =  211.555; ENMIN  =  158.666 eV                                                          
   ICORE  =        3    local potential                                                             
   LCOR   =        T    correct aug charges                                                         
   LPAW   =        T    paw PP                                                                      
   EAUG   =  446.842                                                                                
   DEXC   =    0.000                                                                                
   RMAX   =    2.147    core radius for proj-oper                                                   
   RAUG   =    1.300    factor for augmentation sphere                                              
   RDEP   =    2.177    radius for radial grids                                                     
   RDEPT  =    1.928    core radius for aug-charge                                                  
                                                                                                    
   Atomic configuration                                                                             
   10 entries                                                                                       
     n  l   j            E        occ.                                                              
     1  0  0.50    -12503.4787   2.0000                                                             
     2  0  0.50     -1606.9547   2.0000                                                             
     2  1  1.50     -1413.3140   6.0000                                                             
     3  0  0.50      -213.4885   2.0000                                                             
     3  1  1.50      -152.9538   6.0000                                                             
     3  2  2.50       -53.1221  10.0000                                                             
     4  0  0.50       -17.2865   2.0000                                                             
     4  1  0.50        -6.5110   4.0000                                                             
     4  2  2.50        -6.8029   0.0000                                                             
     4  3  2.50        -6.8029   0.0000                                                             
   Description                                                                                      
     l       E           TYP  RCUT    TYP  RCUT                                                     
     0    -17.2865377     23  2.100                                                                 
     0    -15.3094411     23  2.100                                                                 
     1     -6.5110275     23  2.100                                                                 
     1     -0.0695192     23  2.100                                                                 
     2     -6.8029130     23  2.100                                                                 
     3     -1.3605826      7  2.100                                                                 
  local pseudopotential read in
  partial core-charges read in
  partial kinetic energy density read in
  atomic valenz-charges read in
  non local Contribution for L=           0  read in
    real space projection operators read in
  non local Contribution for L=           0  read in
    real space projection operators read in
  non local Contribution for L=           1  read in
    real space projection operators read in
  non local Contribution for L=           1  read in
    real space projection operators read in
  non local Contribution for L=           2  read in
    real space projection operators read in
    PAW grid and wavefunctions read in
 
   number of l-projection  operators is LMAX  =           5
   number of lm-projection operators is LMMAX =          13
 
 POTCAR:    PAW_PBE O 08Apr2002                   
   SHA256 =  818f92134a0a090dccd8ba1447fa70422a3b330e708bb4f08108d8ae51209ddf O/POTCAR              
   COPYR  = (c) Copyright 08Apr2002 Georg Kresse                                                    
   COPYR  = This file is part of the software VASP. Any use, copying, and all other rights are regul
   COPYR  = If you do not have a valid VASP license, you may not use, copy or distribute this file. 
   VRHFIN =O: s2p4                                                                                  
   LEXCH  = PE                                                                                      
   EATOM  =   432.3788 eV,   31.7789 Ry                                                             
                                                                                                    
   TITEL  = PAW_PBE O 08Apr2002                                                                     
   LULTRA =        F    use ultrasoft PP ?                                                          
   IUNSCR =        1    unscreen: 0-lin 1-nonlin 2-no                                               
   RPACOR =    1.200    partial core radius                                                         
   POMASS =   16.000; ZVAL   =    6.000    mass and valenz                                          
   RCORE  =    1.520    outmost cutoff radius                                                       
   RWIGS  =    1.550; RWIGS  =    0.820    wigner-seitz radius (au A)                               
   ENMAX  =  400.000; ENMIN  =  300.000 eV                                                          
   ICORE  =        2    local potential                                                             
   LCOR   =        T    correct aug charges                                                         
   LPAW   =        T    paw PP                                                                      
   EAUG   =  605.392                                                                                
   DEXC   =    0.000                                                                                
   RMAX   =    1.553    core radius for proj-oper                                                   
   RAUG   =    1.300    factor for augmentation sphere                                              
   RDEP   =    1.550    radius for radial grids                                                     
   RDEPT  =    1.329    core radius for aug-charge                                                  
                                                                                                    
   Atomic configuration                                                                             
    4 entries                                                                                       
     n  l   j            E        occ.                                                              
     1  0  0.50      -514.6923   2.0000                                                             
     2  0  0.50       -23.9615   2.0000                                                             
     2  1  0.50        -9.0305   4.0000                                                             
     3  2  1.50        -9.5241   0.0000                                                             
   Description                                                                                      
     l       E           TYP  RCUT    TYP  RCUT                                                     
     0    -23.9615318     23  1.200                                                                 
     0     -9.5240782     23  1.200                                                                 
     1     -9.0304911     23  1.520                                                                 
     1      8.1634956     23  1.520                                                                 
     2     -9.5240782      7  1.500                                                                 
  local pseudopotential read in
  partial core-charges read in
  partial kinetic energy density read in
  kinetic energy density of atom read in
  atomic valenz-charges read in
  non local Contribution for L=           0  read in
    real space projection operators read in
  non local Contribution for L=           0  read in
    real space projection operators read in
  non local Contribution for L=           1  read in
    real space projection operators read in
  non local Contribution for L=           1  read in
    real space projection operators read in
    PAW grid and wavefunctions read in
 
   number of l-projection  operators is LMAX  =           4
   number of lm-projection operators is LMMAX =           8
 
 POTCAR:    PAW_PBE S 06Sep2000                   
   SHA256 =  0fc7481fb0695f01bdc6462160264c5c84044ae9ec85a907d398b887a2bc3132 S/POTCAR              
   COPYR  = (c) Copyright 06Sep2000 Georg Kresse                                                    
   COPYR  = This file is part of the software VASP. Any use, copying, and all other rights are regul
   COPYR  = If you do not have a valid VASP license, you may not use, copy or distribute this file. 
   VRHFIN =S : s2p4                                                                                 
   LEXCH  = PE                                                                                      
   EATOM  =   276.8230 eV,   20.3459 Ry                                                             
                                                                                                    
   TITEL  = PAW_PBE S 06Sep2000                                                                     
   LULTRA =        F    use ultrasoft PP ?                                                          
   IUNSCR =        1    unscreen: 0-lin 1-nonlin 2-no                                               
   RPACOR =    1.500    partial core radius                                                         
   POMASS =   32.066; ZVAL   =    6.000    mass and valenz                                          
   RCORE  =    1.900    outmost cutoff radius                                                       
   RWIGS  =    2.200; RWIGS  =    1.164    wigner-seitz radius (au A)                               
   ENMAX  =  258.689; ENMIN  =  194.016 eV                                                          
   ICORE  =        2    local potential                                                             
   LCOR   =        T    correct aug charges                                                         
   LPAW   =        T    paw PP                                                                      
   EAUG   =  335.092                                                                                
   DEXC   =    0.000                                                                                
   RMAX   =    1.942    core radius for proj-oper                                                   
   RAUG   =    1.300    factor for augmentation sphere                                              
   RDEP   =    1.954    radius for radial grids                                                     
   RDEPT  =    1.744    core radius for aug-charge                                                  
                                                                                                    
   Atomic configuration                                                                             
    6 entries                                                                                       
     n  l   j            E        occ.                                                              
     1  0  0.50     -2405.8406   2.0000                                                             
     2  0  0.50      -211.7007   2.0000                                                             
     2  1  1.50      -156.4958   6.0000                                                             
     3  0  0.50       -17.2562   2.0000                                                             
     3  1  0.50        -7.0085   4.0000                                                             
     3  2  1.50        -6.8029   0.0000                                                             
   Description                                                                                      
     l       E           TYP  RCUT    TYP  RCUT                                                     
     0    -17.2561641     23  1.900                                                                 
     0    -15.8743224     23  1.900                                                                 
     1     -7.0085400     23  1.900                                                                 
     1     -2.7779785     23  1.900                                                                 
     2     -6.8029130     23  1.900                                                                 
  local pseudopotential read in
  partial core-charges read in
  partial kinetic energy density read in
  atomic valenz-charges read in
  non local Contribution for L=           0  read in
    real space projection operators read in
  non local Contribution for L=           0  read in
    real space projection operators read in
  non local Contribution for L=           1  read in
    real space projection operators read in
  non local Contribution for L=           1  read in
    real space projection operators read in
    PAW grid and wavefunctions read in
 
   number of l-projection  operators is LMAX  =           4
   number of lm-projection operators is LMMAX =           8
 
 -----------------------------------------------------------------------------
|                                                                             |
|               ----> ADVICE to this user running VASP <----                  |
|                                                                             |
|     You have a (more or less) 'large supercell' and for larger cells it     |
|     might be more efficient to use real-space projection operators.         |
|     Therefore, try LREAL= Auto in the INCAR file.                           |
|     Mind: For very accurate calculation, you might also keep the            |
|     reciprocal projection scheme (i.e. LREAL=.FALSE.).                      |
|                                                                             |
 -----------------------------------------------------------------------------

  PAW_PBE Bi_d 06Sep2000                :
 energy of atom  1       EATOM=-1959.2045
 kinetic energy error for atom=    0.0040 (will be added to EATOM!!)
  PAW_PBE Se 06Sep2000                  :
 energy of atom  2       EATOM= -257.1286
 kinetic energy error for atom=    0.0007 (will be added to EATOM!!)
  PAW_PBE O 08Apr2002                   :
 energy of atom  3       EATOM= -432.3788
 kinetic energy error for atom=    0.0208 (will be added to EATOM!!)
  PAW_PBE S 06Sep2000                   :
 energy of atom  4       EATOM= -276.8230
 kinetic energy error for atom=    0.0016 (will be added to EATOM!!)
 
 
 POSCAR: generated by phonopy
  positions in direct lattice
  velocities in cartesian coordinates


 exchange-correlation table for PE
   RHO(1)=    0.500       N(1)  =     2000
   RHO(2)=  100.500       N(2)  =     4000
 


--------------------------------------------------------------------------------------------------------


 ion  position               nearest neighbor table
   1  0.249  0.249  0.858-  24 2.29  28 2.29  25 2.30  30 2.30  40 3.17  18 3.18  17 3.18  19 3.19
                            13 3.40   5 3.72   7 3.73   6 3.73   8 3.73   3 3.78   2 3.78   3 3.82
   2  0.751  0.249  0.858-  24 2.29  29 2.29  25 2.30  31 2.30  40 3.17  18 3.18  17 3.18  19 3.19
                            14 3.40   5 3.72   7 3.73   6 3.73   8 3.73   4 3.78   1 3.78   4 3.82
   3  0.249  0.751  0.858-  26 2.29  28 2.29  27 2.30  30 2.30  40 3.17  18 3.18  17 3.18  19 3.19
                            15 3.40   5 3.72   7 3.73   6 3.73   8 3.73   4 3.78   1 3.78   4 3.82
   4  0.751  0.751  0.858-  26 2.29  29 2.29  27 2.30  31 2.30  40 3.17  18 3.18  17 3.18  19 3.19
                            16 3.40   5 3.72   7 3.73   6 3.73   8 3.73   3 3.78   2 3.78   2 3.82
   5  0.000  0.000  0.642-  24 2.30  26 2.30  28 2.30  29 2.30  20 3.19  21 3.19  22 3.19  23 3.19
                             9 3.42   2 3.72   3 3.72   4 3.72   1 3.72   7 3.80   6 3.80   7 3.80
   6  0.500  0.000  0.643-  28 2.30  29 2.30  25 2.30  27 2.30  20 3.19  21 3.19  22 3.19  23 3.19
                            10 3.44   2 3.73   3 3.73   4 3.73   1 3.73   5 3.80   5 3.80   8 3.80
   7  0.000  0.500  0.643-  24 2.30  26 2.30  30 2.30  31 2.30  20 3.19  21 3.19  22 3.19  23 3.19
                            11 3.44   2 3.73   3 3.73   4 3.73   1 3.73   5 3.80   5 3.80   8 3.80
   8  0.500  0.500  0.644-  25 2.30  27 2.30  30 2.30  31 2.30  20 3.19  21 3.19  22 3.19  23 3.19
                            12 3.46   2 3.73   3 3.73   4 3.73   1 3.73   7 3.80   6 3.80   6 3.80
   9  0.000  0.000  0.358-  32 2.30  33 2.30  36 2.30  38 2.30  20 3.19  21 3.19  22 3.19  23 3.19
                             5 3.42  13 3.72  14 3.72  15 3.72  16 3.72  10 3.80  11 3.80  11 3.80
  10  0.500  0.000  0.357-  32 2.30  33 2.30  37 2.30  39 2.30  20 3.19  21 3.19  22 3.19  23 3.19
                             6 3.44  13 3.73  14 3.73  15 3.73  16 3.73   9 3.80   9 3.80  12 3.80
  11  0.000  0.500  0.357-  36 2.30  38 2.30  34 2.30  35 2.30  20 3.19  21 3.19  22 3.19  23 3.19
                             7 3.44  13 3.73  14 3.73  15 3.73  16 3.73   9 3.80   9 3.80  12 3.80
  12  0.500  0.500  0.356-  34 2.30  35 2.30  37 2.30  39 2.30  20 3.19  21 3.19  22 3.19  23 3.19
                             8 3.46  13 3.73  14 3.73  15 3.73  16 3.73  10 3.80  11 3.80  10 3.80
  13  0.249  0.249  0.142-  32 2.29  36 2.29  34 2.30  37 2.30  40 3.17  18 3.18  17 3.18  19 3.19
                             1 3.40   9 3.72  10 3.73  11 3.73  12 3.73  14 3.78  15 3.78  15 3.82
  14  0.751  0.249  0.142-  33 2.29  36 2.29  35 2.30  37 2.30  40 3.17  18 3.18  17 3.18  19 3.19
                             2 3.40   9 3.72  10 3.73  11 3.73  12 3.73  13 3.78  16 3.78  16 3.82
  15  0.249  0.751  0.142-  32 2.29  38 2.29  34 2.30  39 2.30  40 3.17  18 3.18  17 3.18  19 3.19
                             3 3.40   9 3.72  10 3.73  11 3.73  12 3.73  13 3.78  16 3.78  16 3.82
  16  0.751  0.751  0.142-  33 2.29  38 2.29  35 2.30  39 2.30  40 3.17  18 3.18  17 3.18  19 3.19
                             4 3.40   9 3.72  10 3.73  11 3.73  12 3.73  14 3.78  15 3.78  14 3.82
  17  0.500  0.000  0.000-   1 3.18   2 3.18   3 3.18   4 3.18  13 3.18  14 3.18  15 3.18  16 3.18

  18  0.000  0.500  0.000-   1 3.18   2 3.18   3 3.18   4 3.18  13 3.18  14 3.18  15 3.18  16 3.18

  19  0.500  0.500  0.000-   1 3.19   2 3.19   3 3.19   4 3.19  13 3.19  14 3.19  15 3.19  16 3.19

  20  0.250  0.250  0.500-   5 3.19   9 3.19   7 3.19   6 3.19  10 3.19  11 3.19   8 3.19  12 3.19

  21  0.750  0.250  0.500-   5 3.19   9 3.19   7 3.19   6 3.19  10 3.19  11 3.19   8 3.19  12 3.19

  22  0.250  0.750  0.500-   5 3.19   9 3.19   7 3.19   6 3.19  10 3.19  11 3.19   8 3.19  12 3.19

  23  0.750  0.750  0.500-   5 3.19   9 3.19   7 3.19   6 3.19  10 3.19  11 3.19   8 3.19  12 3.19

  24  0.000  0.249  0.750-   1 2.29   2 2.29   5 2.30   7 2.30
  25  0.500  0.250  0.752-   8 2.30   6 2.30   1 2.30   2 2.30
  26  0.000  0.751  0.750-   3 2.29   4 2.29   5 2.30   7 2.30
  27  0.500  0.750  0.752-   8 2.30   6 2.30   3 2.30   4 2.30
  28  0.249  0.000  0.750-   1 2.29   3 2.29   5 2.30   6 2.30
  29  0.751  0.000  0.750-   2 2.29   4 2.29   5 2.30   6 2.30
  30  0.250  0.500  0.752-   8 2.30   7 2.30   1 2.30   3 2.30
  31  0.750  0.500  0.752-   8 2.30   7 2.30   2 2.30   4 2.30
  32  0.249  0.000  0.250-  13 2.29  15 2.29   9 2.30  10 2.30
  33  0.751  0.000  0.250-  14 2.29  16 2.29   9 2.30  10 2.30
  34  0.250  0.500  0.248-  12 2.30  11 2.30  13 2.30  15 2.30
  35  0.750  0.500  0.248-  12 2.30  11 2.30  14 2.30  16 2.30
  36  0.000  0.249  0.250-  13 2.29  14 2.29   9 2.30  11 2.30
  37  0.500  0.250  0.248-  12 2.30  10 2.30  13 2.30  14 2.30
  38  0.000  0.751  0.250-  15 2.29  16 2.29   9 2.30  11 2.30
  39  0.500  0.750  0.248-  12 2.30  10 2.30  15 2.30  16 2.30
  40  0.000  0.000  0.000-   1 3.17   2 3.17   3 3.17   4 3.17  13 3.17  14 3.17  15 3.17  16 3.17

 
  LATTYP: Found a simple tetragonal cell.
 ALAT       =     7.6049542772
 C/A-ratio  =     1.5781187256
  
  Lattice vectors:
  
 A1 = (   7.6049542772,   0.0000000000,   0.0000000000)
 A2 = (   0.0000000000,   7.6049542772,   0.0000000000)
 A3 = (   0.0000000000,   0.0000000000,  12.0015207522)


Analysis of symmetry for initial positions (statically):
=====================================================================
 Subroutine PRICEL returns:
 Original cell was already a primitive cell.
 

 Routine SETGRP: Setting up the symmetry group for a 
 simple tetragonal supercell.


 Subroutine GETGRP returns: Found 16 space group operations
 (whereof 16 operations were pure point group operations)
 out of a pool of 16 trial point group operations.


The static configuration has the point symmetry D_4h.


Analysis of symmetry for dynamics (positions and initial velocities):
=====================================================================
 Subroutine PRICEL returns:
 Original cell was already a primitive cell.
 

 Routine SETGRP: Setting up the symmetry group for a 
 simple tetragonal supercell.


 Subroutine GETGRP returns: Found 16 space group operations
 (whereof 16 operations were pure point group operations)
 out of a pool of 16 trial point group operations.


The dynamic configuration has the point symmetry D_4h.


 Subroutine INISYM returns: Found 16 space group operations
 (whereof 16 operations are pure point group operations),
 and found     1 'primitive' translations


----------------------------------------------------------------------------------------

                                     Primitive cell                                     

  volume of cell :     694.1119

  direct lattice vectors                    reciprocal lattice vectors
     7.604954277  0.000000000  0.000000000     0.131493230  0.000000000  0.000000000
     0.000000000  7.604954277  0.000000000     0.000000000  0.131493230  0.000000000
     0.000000000  0.000000000 12.001520752     0.000000000  0.000000000  0.083322774

  length of vectors
     7.604954277  7.604954277 12.001520752     0.131493230  0.131493230  0.083322774

  position of ions in fractional coordinates (direct lattice)
     0.248686824  0.248686824  0.858408104
     0.751313176  0.248686824  0.858408104
     0.248686824  0.751313176  0.858408104
     0.751313176  0.751313176  0.858408104
     0.000000000  0.000000000  0.642404599
     0.500000000  0.000000000  0.643320500
     0.000000000  0.500000000  0.643320500
     0.500000000  0.500000000  0.644315449
     0.000000000  0.000000000  0.357595401
     0.500000000  0.000000000  0.356679500
     0.000000000  0.500000000  0.356679500
     0.500000000  0.500000000  0.355684551
     0.248686824  0.248686824  0.141591896
     0.751313176  0.248686824  0.141591896
     0.248686824  0.751313176  0.141591896
     0.751313176  0.751313176  0.141591896
     0.500000000  0.000000000  0.000000000
     0.000000000  0.500000000  0.000000000
     0.500000000  0.500000000  0.000000000
     0.250473954  0.250473954  0.500000000
     0.749526046  0.250473954  0.500000000
     0.250473954  0.749526046  0.500000000
     0.749526046  0.749526046  0.500000000
     0.000000000  0.249388054  0.750230305
     0.500000000  0.249520120  0.751568202
     0.000000000  0.750611946  0.750230305
     0.500000000  0.750479880  0.751568202
     0.249388054  0.000000000  0.750230305
     0.750611946  0.000000000  0.750230305
     0.249520120  0.500000000  0.751568202
     0.750479880  0.500000000  0.751568202
     0.249388054  0.000000000  0.249769695
     0.750611946  0.000000000  0.249769695
     0.249520120  0.500000000  0.248431798
     0.750479880  0.500000000  0.248431798
     0.000000000  0.249388054  0.249769695
     0.500000000  0.249520120  0.248431798
     0.000000000  0.750611946  0.249769695
     0.500000000  0.750479880  0.248431798
     0.000000000  0.000000000  0.000000000

  ion indices of the primitive-cell ions
   primitive index   ion index
                 1           1
                 2           2
                 3           3
                 4           4
                 5           5
                 6           6
                 7           7
                 8           8
                 9           9
                10          10
                11          11
                12          12
                13          13
                14          14
                15          15
                16          16
                17          17
                18          18
                19          19
                20          20
                21          21
                22          22
                23          23
                24          24
                25          25
                26          26
                27          27
                28          28
                29          29
                30          30
                31          31
                32          32
                33          33
                34          34
                35          35
                36          36
                37          37
                38          38
                39          39
                40          40

----------------------------------------------------------------------------------------

 
 
 KPOINTS: K-Spacing Value to Generate K-Mesh: 0.03

Automatic generation of k-mesh.
 Grid dimensions read from file:
 generate k-points for:    4    4    3

 Generating k-lattice:

  Cartesian coordinates                     Fractional coordinates (reciprocal lattice)
     0.032873307  0.000000000  0.000000000     0.250000000  0.000000000  0.000000000
     0.000000000  0.032873307  0.000000000     0.000000000  0.250000000  0.000000000
     0.000000000  0.000000000  0.027774258     0.000000000  0.000000000  0.333333333

  Length of vectors
     0.032873307  0.032873307  0.027774258

  Shift w.r.t. Gamma in fractional coordinates (k-lattice)
     0.000000000  0.000000000  0.000000000

 
 Subroutine IBZKPT returns following result:
 ===========================================
 
 Found     12 irreducible k-points:
 
 Following reciprocal coordinates:
            Coordinates               Weight
  0.000000  0.000000  0.000000      1.000000
  0.250000  0.000000  0.000000      4.000000
  0.500000  0.000000  0.000000      2.000000
  0.250000  0.250000  0.000000      4.000000
  0.500000  0.250000  0.000000      4.000000
  0.500000  0.500000  0.000000      1.000000
  0.000000  0.000000  0.333333      2.000000
  0.250000  0.000000  0.333333      8.000000
  0.500000  0.000000  0.333333      4.000000
  0.250000  0.250000  0.333333      8.000000
  0.500000  0.250000  0.333333      8.000000
  0.500000  0.500000  0.333333      2.000000
 
 Following cartesian coordinates:
            Coordinates               Weight
  0.000000  0.000000  0.000000      1.000000
  0.031887  0.000000  0.000000      4.000000
  0.063774  0.000000  0.000000      2.000000
  0.031887  0.031887  0.000000      4.000000
  0.063774  0.031887  0.000000      4.000000
  0.063774  0.063774  0.000000      1.000000
  0.000000  0.000000  0.026941      2.000000
  0.031887  0.000000  0.026941      8.000000
  0.063774  0.000000  0.026941      4.000000
  0.031887  0.031887  0.026941      8.000000
  0.063774  0.031887  0.026941      8.000000
  0.063774  0.063774  0.026941      2.000000
 


--------------------------------------------------------------------------------------------------------




 Dimension of arrays:
   k-points           NKPTS =     12   k-points in BZ     NKDIM =     12   number of bands    NBANDS=    232
   number of dos      NEDOS =    301   number of ions     NIONS =     40
   non local maximal  LDIM  =      6   non local SUM 2l+1 LMDIM =     18
   total plane-waves  NPLWV = 324000
   max r-space proj   IRMAX =      1   max aug-charges    IRDMAX= 165212
   dimension x,y,z NGX =    60 NGY =   60 NGZ =   90
   dimension x,y,z NGXF=   120 NGYF=  120 NGZF=  180
   support grid    NGXF=   240 NGYF=  240 NGZF=  360
   ions per type =              16   7  16   1
   NGX,Y,Z   is equivalent  to a cutoff of  13.12, 13.12, 12.47 a.u.
   NGXF,Y,Z  is equivalent  to a cutoff of  26.23, 26.23, 24.93 a.u.

 SYSTEM =  unknown system                          
 POSCAR =  generated by phonopy                    

 Startparameter for this run:
   NWRITE =      2    write-flag & timer
   PREC   = accura    normal or accurate (medium, high low for compatibility)
   ISTART =      0    job   : 0-new  1-cont  2-samecut
   ICHARG =      2    charge: 1-file 2-atom 10-const
   ISPIN  =      1    spin polarized calculation?
   LNONCOLLINEAR =      F non collinear calculations
   LSORBIT =      F    spin-orbit coupling
   INIWAV =      1    electr: 0-lowe 1-rand  2-diag
   LASPH  =      F    aspherical Exc in radial PAW
 Electronic Relaxation 1
   ENCUT  =  520.0 eV  38.22 Ry    6.18 a.u.  14.14 14.14 22.31*2*pi/ulx,y,z
   ENINI  =  520.0     initial cutoff
   ENAUG  =  605.4 eV  augmentation charge cutoff
   NELM   =     60;   NELMIN=  5; NELMDL= -5     # of ELM steps 
   EDIFF  = 0.1E-07   stopping-criterion for ELM
   LREAL  =      F    real-space projection
   NLSPLINE    = F    spline interpolate recip. space projectors
   LCOMPAT=      F    compatible to vasp.4.4
   GGA_COMPAT  = T    GGA compatible to vasp.4.4-vasp.4.6
   LMAXPAW     = -100 max onsite density
   LMAXMIX     =    2 max onsite mixed and CHGCAR
   VOSKOWN=      0    Vosko Wilk Nusair interpolation
   ROPT   =    0.00000   0.00000   0.00000   0.00000
 Ionic relaxation
   EDIFFG = -.1E-04   stopping-criterion for IOM
   NSW    =    100    number of steps for IOM
   NBLOCK =      1;   KBLOCK =    100    inner block; outer block 
   IBRION =      2    ionic relax: 0-MD 1-quasi-New 2-CG
   NFREE  =      1    steps in history (QN), initial steepest desc. (CG)
   ISIF   =      2    stress and relaxation
   IWAVPR =     11    prediction:  0-non 1-charg 2-wave 3-comb
   ISYM   =      2    0-nonsym 1-usesym 2-fastsym
   LCORR  =      T    Harris-Foulkes like correction to forces

   POTIM  = 0.5000    time-step for ionic-motion
   TEIN   =    0.0    initial temperature
   TEBEG  =    0.0;   TEEND  =   0.0 temperature during run
   SMASS  =  -3.00    Nose mass-parameter (am)
   estimated Nose-frequenzy (Omega)   =  0.10E-29 period in steps = 0.13E+47 mass=  -0.132E-26a.u.
   SCALEE = 1.0000    scale energy and forces
   NPACO  =    256;   APACO  = 10.0  distance and # of slots for P.C.
   PSTRESS=    0.0 pullay stress

  Mass of Ions in am
   POMASS = 208.98 78.96 16.00 32.07
  Ionic Valenz
   ZVAL   =  15.00  6.00  6.00  6.00
  Atomic Wigner-Seitz radii
   RWIGS  =  -1.00 -1.00 -1.00 -1.00
  virtual crystal weights 
   VCA    =   1.00  1.00  1.00  1.00
   NELECT =     384.0000    total number of electrons
   NUPDOWN=      -1.0000    fix difference up-down

 DOS related values:
   EMIN   =  10.00;   EMAX   =-10.00  energy-range for DOS
   EFERMI =   0.00;   METHOD = LEGACY      
   ISMEAR =     0;   SIGMA  =   0.05  broadening in eV -4-tet -1-fermi 0-gaus

 Electronic relaxation 2 (details)
   IALGO  =     38    algorithm
   LDIAG  =      T    sub-space diagonalisation (order eigenvalues)
   LSUBROT=      F    optimize rotation matrix (better conditioning)
   TURBO    =      0    0=normal 1=particle mesh
   IRESTART =      0    0=no restart 2=restart with 2 vectors
   NREBOOT  =      0    no. of reboots
   NMIN     =      0    reboot dimension
   EREF     =   0.00    reference energy to select bands
   IMIX   =      4    mixing-type and parameters
     AMIX     =   0.40;   BMIX     =  1.00
     AMIX_MAG =   1.60;   BMIX_MAG =  1.00
     AMIN     =   0.10
     WC   =   100.;   INIMIX=   1;  MIXPRE=   1;  MAXMIX= -45

 Intra band minimization:
   WEIMIN = 0.0010     energy-eigenvalue tresh-hold
   EBREAK =  0.11E-10  absolut break condition
   DEPER  =   0.30     relativ break condition  

   TIME   =   0.40     timestep for ELM

  volume/ion in A,a.u.               =      17.35       117.10
  Fermi-wavevector in a.u.,A,eV,Ry     =   1.343926  2.539652 24.573993  1.806138
  Thomas-Fermi vector in A             =   2.471961
 
 Write flags
   LWAVE        =      F    write WAVECAR
   LDOWNSAMPLE  =      F    k-point downsampling of WAVECAR
   LCHARG       =      F    write CHGCAR
   LVTOT        =      F    write LOCPOT, total local potential
   LVHAR        =      F    write LOCPOT, Hartree potential only
   WRT_POTENTIAL= false  ! write potential to hdf5 file
   LELF         =      F    write electronic localiz. function (ELF)
   LORBIT       =      0    0 simple, 1 ext, 2 COOP (PROOUT), +10 PAW based schemes


 Dipole corrections
   LMONO      =      F    monopole corrections only (constant potential shift)
   LDIPOL     =      F    correct potential (dipole corrections)
   IDIPOL     =      0    1-x, 2-y, 3-z, 4-all directions 
   EPSILON    =  1.0000000 bulk dielectric constant
   LVACPOTAV  =      F  vacuum potentials using an averaging scheme for the charge density
   VACPOTFLAT =  0.1000000 required flatness to determine vacuum potential
 Exchange correlation treatment:
   GGA     = PE    functional components
   XC_C    = 1    coefficients multiplying the functional components
   LIBXC   =     F    Libxc                    
   VOSKOWN =     0    Vosko Wilk Nusair interpolation
   LHFCALC =     F    Hartree Fock is set to
   LHFONE  =     F    Hartree Fock one center treatment
   AEXX    =    0.0000 exact exchange contribution

 Parameters of functionals:
   PE:
     No parameter
 
 Van der Waals corrections
   IVDW    =     0    specifies the selected vdW correction

 Linear response parameters
   LEPSILON=     F    determine dielectric tensor
   LRPA    =     F    only Hartree local field effects (RPA)
   LNABLA  =     F    use nabla operator in PAW spheres
   LVEL    =     F    velocity operator in full k-point grid
   CSHIFT  =0.1000    complex shift for real part using Kramers Kronig
   OMEGAMAX=  -1.0    maximum frequency
   DEG_THRESHOLD= 0.2000000E-02 threshold for treating states as degnerate
   RTIME   =   -0.100 relaxation time in fs
  (WPLASMAI=    0.000 imaginary part of plasma frequency in eV, 0.658/RTIME)
   DFIELD  = 0.0000000 0.0000000 0.0000000 field for delta impulse in time
 
  Optional k-point grid parameters
   LKPOINTS_OPT  =     F    use optional k-point grid
   KPOINTS_OPT_MODE=     1    mode for optional k-point grid
 
 Orbital magnetization related:
   ORBITALMAG=     F  switch on orbital magnetization
   LCHIMAG   =     F  perturbation theory with respect to B field
   DQ        =  0.001000  dq finite difference perturbation B field
   LLRAUG    =     F  two centre corrections for induced B field
   LBONE     =     F  B-component reconstruction in AE one-centre
   LVGVCALC  =     T  calculate vGv susceptibility
   LVGVAPPL  =     F  apply vGv susceptibility instead of pGv for G=0

 Random number generation:
   RANDOM_GENERATOR = DEFAULT
   PCG_SEED         = not used


--------------------------------------------------------------------------------------------------------


 conjugate gradient relaxation of ions
 charge density and potential will be updated during run
 non-spin polarized calculation
 Variant of blocked Davidson
 Davidson routine will perform the subspace rotation
 perform sub-space diagonalisation
    after iterative eigenvector-optimisation
 modified Broyden-mixing scheme, WC =      100.0
 initial mixing is a Kerker type mixing with AMIX =  0.4000 and BMIX =      1.0000
 Hartree-type preconditioning will be used
 using additional bands           40
 reciprocal scheme for non local part
 use partial core corrections
 calculate Harris-corrections to forces 
   (improved forces if not selfconsistent)
 use gradient corrections 
 use of overlap-Matrix (Vanderbilt PP)
 Gauss-broadening in eV      SIGMA  =   0.05


--------------------------------------------------------------------------------------------------------


  energy-cutoff  :      520.00
  volume of cell :      694.11
      direct lattice vectors                 reciprocal lattice vectors
     7.604954277  0.000000000  0.000000000     0.131493230  0.000000000  0.000000000
     0.000000000  7.604954277  0.000000000     0.000000000  0.131493230  0.000000000
     0.000000000  0.000000000 12.001520752     0.000000000  0.000000000  0.083322774

  length of vectors
     7.604954277  7.604954277 12.001520752     0.131493230  0.131493230  0.083322774


 
 k-points in units of 2pi/SCALE and weight: K-Spacing Value to Generate K-Mesh: 0.03
   0.00000000  0.00000000  0.00000000       0.021
   0.03188711  0.00000000  0.00000000       0.083
   0.06377422  0.00000000  0.00000000       0.042
   0.03188711  0.03188711  0.00000000       0.083
   0.06377422  0.03188711  0.00000000       0.083
   0.06377422  0.06377422  0.00000000       0.021
   0.00000000  0.00000000  0.02694103       0.042
   0.03188711  0.00000000  0.02694103       0.167
   0.06377422  0.00000000  0.02694103       0.083
   0.03188711  0.03188711  0.02694103       0.167
   0.06377422  0.03188711  0.02694103       0.167
   0.06377422  0.06377422  0.02694103       0.042
 
 k-points in reciprocal lattice and weights: K-Spacing Value to Generate K-Mesh: 0.03
   0.00000000  0.00000000  0.00000000       0.021
   0.25000000  0.00000000  0.00000000       0.083
   0.50000000  0.00000000  0.00000000       0.042
   0.25000000  0.25000000  0.00000000       0.083
   0.50000000  0.25000000  0.00000000       0.083
   0.50000000  0.50000000  0.00000000       0.021
   0.00000000  0.00000000  0.33333333       0.042
   0.25000000  0.00000000  0.33333333       0.167
   0.50000000  0.00000000  0.33333333       0.083
   0.25000000  0.25000000  0.33333333       0.167
   0.50000000  0.25000000  0.33333333       0.167
   0.50000000  0.50000000  0.33333333       0.042
 
 position of ions in fractional coordinates (direct lattice) 
   0.24868682  0.24868682  0.85840810
   0.75131318  0.24868682  0.85840810
   0.24868682  0.75131318  0.85840810
   0.75131318  0.75131318  0.85840810
   0.00000000  0.00000000  0.64240460
   0.50000000  0.00000000  0.64332050
   0.00000000  0.50000000  0.64332050
   0.50000000  0.50000000  0.64431545
   0.00000000  0.00000000  0.35759540
   0.50000000  0.00000000  0.35667950
   0.00000000  0.50000000  0.35667950
   0.50000000  0.50000000  0.35568455
   0.24868682  0.24868682  0.14159190
   0.75131318  0.24868682  0.14159190
   0.24868682  0.75131318  0.14159190
   0.75131318  0.75131318  0.14159190
   0.50000000  0.00000000  0.00000000
   0.00000000  0.50000000  0.00000000
   0.50000000  0.50000000  0.00000000
   0.25047395  0.25047395  0.50000000
   0.74952605  0.25047395  0.50000000
   0.25047395  0.74952605  0.50000000
   0.74952605  0.74952605  0.50000000
   0.00000000  0.24938805  0.75023031
   0.50000000  0.24952012  0.75156820
   0.00000000  0.75061195  0.75023031
   0.50000000  0.75047988  0.75156820
   0.24938805  0.00000000  0.75023031
   0.75061195  0.00000000  0.75023031
   0.24952012  0.50000000  0.75156820
   0.75047988  0.50000000  0.75156820
   0.24938805  0.00000000  0.24976969
   0.75061195  0.00000000  0.24976969
   0.24952012  0.50000000  0.24843180
   0.75047988  0.50000000  0.24843180
   0.00000000  0.24938805  0.24976969
   0.50000000  0.24952012  0.24843180
   0.00000000  0.75061195  0.24976969
   0.50000000  0.75047988  0.24843180
   0.00000000  0.00000000  0.00000000
 
 position of ions in cartesian coordinates  (Angst):
   1.89125193  1.89125193 10.30220267
   5.71370235  1.89125193 10.30220267
   1.89125193  5.71370235 10.30220267
   5.71370235  5.71370235 10.30220267
   0.00000000  0.00000000  7.70983212
   3.80247714  0.00000000  7.72082433
   0.00000000  3.80247714  7.72082433
   3.80247714  3.80247714  7.73276523
   0.00000000  0.00000000  4.29168863
   3.80247714  0.00000000  4.28069643
   0.00000000  3.80247714  4.28069643
   3.80247714  3.80247714  4.26875553
   1.89125193  1.89125193  1.69931808
   5.71370235  1.89125193  1.69931808
   1.89125193  5.71370235  1.69931808
   5.71370235  5.71370235  1.69931808
   3.80247714  0.00000000  0.00000000
   0.00000000  3.80247714  0.00000000
   3.80247714  3.80247714  0.00000000
   1.90484297  1.90484297  6.00076038
   5.70011131  1.90484297  6.00076038
   1.90484297  5.70011131  6.00076038
   5.70011131  5.70011131  6.00076038
   0.00000000  1.89658475  9.00390458
   3.80247714  1.89758910  9.01996137
   0.00000000  5.70836953  9.00390458
   3.80247714  5.70736518  9.01996137
   1.89658475  0.00000000  9.00390458
   5.70836953  0.00000000  9.00390458
   1.89758910  3.80247714  9.01996137
   5.70736518  3.80247714  9.01996137
   1.89658475  0.00000000  2.99761618
   5.70836953  0.00000000  2.99761618
   1.89758910  3.80247714  2.98155938
   5.70736518  3.80247714  2.98155938
   0.00000000  1.89658475  2.99761618
   3.80247714  1.89758910  2.98155938
   0.00000000  5.70836953  2.99761618
   3.80247714  5.70736518  2.98155938
   0.00000000  0.00000000  0.00000000
 


--------------------------------------------------------------------------------------------------------


 k-point     1 :   0.0000 0.0000 0.0000  plane waves:   18649
 k-point     2 :   0.2500 0.0000 0.0000  plane waves:   18710
 k-point     3 :   0.5000 0.0000 0.0000  plane waves:   18692
 k-point     4 :   0.2500 0.2500 0.0000  plane waves:   18676
 k-point     5 :   0.5000 0.2500 0.0000  plane waves:   18714
 k-point     6 :   0.5000 0.5000 0.0000  plane waves:   18600
 k-point     7 :   0.0000 0.0000 0.3333  plane waves:   18640
 k-point     8 :   0.2500 0.0000 0.3333  plane waves:   18674
 k-point     9 :   0.5000 0.0000 0.3333  plane waves:   18694
 k-point    10 :   0.2500 0.2500 0.3333  plane waves:   18679
 k-point    11 :   0.5000 0.2500 0.3333  plane waves:   18706
 k-point    12 :   0.5000 0.5000 0.3333  plane waves:   18728

 maximum and minimum number of plane-waves per node :      2103     2046

 maximum number of plane-waves:     18728
 maximum index in each direction: 
   IXMAX=   14   IYMAX=   14   IZMAX=   22
   IXMIN=  -14   IYMIN=  -14   IZMIN=  -22


 parallel 3D FFT for wavefunctions:
    minimum data exchange during FFTs selected (reduces bandwidth)
 parallel 3D FFT for charge:
    minimum data exchange during FFTs selected (reduces bandwidth)


 total amount of memory used by VASP MPI-rank0    89622. kBytes
=======================================================================

   base      :      30000. kBytes
   nonl-proj :      15677. kBytes
   fftplans  :      12200. kBytes
   grid      :       7793. kBytes
   one-center:         77. kBytes
   wavefun   :      23875. kBytes
 
     INWAV:  cpu time      0.0000: real time      0.0000
 Broyden mixing: mesh for mixing (old mesh)
   NGX = 29   NGY = 29   NGZ = 45
  (NGX  =120   NGY  =120   NGZ  =180)
  gives a total of  37845 points

 initial charge density was supplied:
 charge density of overlapping atoms calculated
 number of electron     384.0000000 magnetization 
 keeping initial charge density in first step


--------------------------------------------------------------------------------------------------------


 Maximum index for augmentation-charges         5297 (set IRDMAX)


--------------------------------------------------------------------------------------------------------


 First call to EWALD:  gamma=   0.200
 Maximum number of real-space cells 3x 3x 2
 Maximum number of reciprocal cells 2x 2x 4

    FEWALD:  cpu time      0.0017: real time      0.0017


--------------------------------------- Ionic step        1  -------------------------------------------




--------------------------------------- Iteration      1(   1)  ---------------------------------------


    POTLOK:  cpu time      0.1591: real time      0.1591
    SETDIJ:  cpu time      0.6774: real time      0.6778
     EDDAV:  cpu time     29.4998: real time     29.5193
       DOS:  cpu time      0.0022: real time      0.0023
    --------------------------------------------
      LOOP:  cpu time     30.3385: real time     30.3585

 eigenvalue-minimisations  :  5568
 total energy-change (2. order) : 0.5869387E+04  (-0.1741534E+05)
 number of electron     384.0000000 magnetization 
 augmentation part      384.0000000 magnetization 

 Free energy of the ion-electron system (eV)
  ---------------------------------------------------
  alpha Z        PSCENC =      1455.32177217
  Ewald energy   TEWEN  =    -30728.61046270
  -Hartree energ DENC   =    -10618.25325038
  -exchange      EXHF   =         0.00000000
  -V(xc)+E(xc)   XCENC  =      1243.09503054
  PAW double counting   =     34040.00696010   -33495.80632930
  entropy T*S    EENTRO =        -0.00851986
  eigenvalues    EBANDS =      3631.99012903
  atomic energy  EATOM  =     40341.65184589
  Solvation  Ediel_sol  =         0.00000000
  ---------------------------------------------------
  free energy    TOTEN  =      5869.38717551 eV

  energy without entropy =     5869.39569537  energy(sigma->0) =     5869.39143544


--------------------------------------------------------------------------------------------------------




--------------------------------------- Iteration      1(   2)  ---------------------------------------


     EDDAV:  cpu time     29.5226: real time     29.5353
       DOS:  cpu time      0.0017: real time      0.0018
    --------------------------------------------
      LOOP:  cpu time     29.5243: real time     29.5370

 eigenvalue-minimisations  :  5568
 total energy-change (2. order) :-0.4824302E+04  (-0.4683015E+04)
 number of electron     384.0000000 magnetization 
 augmentation part      384.0000000 magnetization 

 Free energy of the ion-electron system (eV)
  ---------------------------------------------------
  alpha Z        PSCENC =      1455.32177217
  Ewald energy   TEWEN  =    -30728.61046270
  -Hartree energ DENC   =    -10618.25325038
  -exchange      EXHF   =         0.00000000
  -V(xc)+E(xc)   XCENC  =      1243.09503054
  PAW double counting   =     34040.00696010   -33495.80632930
  entropy T*S    EENTRO =        -0.00447338
  eigenvalues    EBANDS =     -1192.31580740
  atomic energy  EATOM  =     40341.65184589
  Solvation  Ediel_sol  =         0.00000000
  ---------------------------------------------------
  free energy    TOTEN  =      1045.08528556 eV

  energy without entropy =     1045.08975894  energy(sigma->0) =     1045.08752225


--------------------------------------------------------------------------------------------------------




--------------------------------------- Iteration      1(   3)  ---------------------------------------


     EDDAV:  cpu time     31.8655: real time     31.8866
       DOS:  cpu time      0.0015: real time      0.0016
    --------------------------------------------
      LOOP:  cpu time     31.8670: real time     31.8882

 eigenvalue-minimisations  :  6200
 total energy-change (2. order) :-0.1143170E+04  (-0.1062260E+04)
 number of electron     384.0000000 magnetization 
 augmentation part      384.0000000 magnetization 

 Free energy of the ion-electron system (eV)
  ---------------------------------------------------
  alpha Z        PSCENC =      1455.32177217
  Ewald energy   TEWEN  =    -30728.61046270
  -Hartree energ DENC   =    -10618.25325038
  -exchange      EXHF   =         0.00000000
  -V(xc)+E(xc)   XCENC  =      1243.09503054
  PAW double counting   =     34040.00696010   -33495.80632930
  entropy T*S    EENTRO =        -0.00000000
  eigenvalues    EBANDS =     -2335.48992488
  atomic energy  EATOM  =     40341.65184589
  Solvation  Ediel_sol  =         0.00000000
  ---------------------------------------------------
  free energy    TOTEN  =       -98.08435855 eV

  energy without entropy =      -98.08435855  energy(sigma->0) =      -98.08435855


--------------------------------------------------------------------------------------------------------




--------------------------------------- Iteration      1(   4)  ---------------------------------------


     EDDAV:  cpu time     33.8477: real time     33.8519
       DOS:  cpu time      0.0014: real time      0.0015
    --------------------------------------------
      LOOP:  cpu time     33.8490: real time     33.8534

 eigenvalue-minimisations  :  6728
 total energy-change (2. order) :-0.1365175E+03  (-0.1324745E+03)
 number of electron     384.0000000 magnetization 
 augmentation part      384.0000000 magnetization 

 Free energy of the ion-electron system (eV)
  ---------------------------------------------------
  alpha Z        PSCENC =      1455.32177217
  Ewald energy   TEWEN  =    -30728.61046270
  -Hartree energ DENC   =    -10618.25325038
  -exchange      EXHF   =         0.00000000
  -V(xc)+E(xc)   XCENC  =      1243.09503054
  PAW double counting   =     34040.00696010   -33495.80632930
  entropy T*S    EENTRO =        -0.00000000
  eigenvalues    EBANDS =     -2472.00740767
  atomic energy  EATOM  =     40341.65184589
  Solvation  Ediel_sol  =         0.00000000
  ---------------------------------------------------
  free energy    TOTEN  =      -234.60184133 eV

  energy without entropy =     -234.60184133  energy(sigma->0) =     -234.60184133


--------------------------------------------------------------------------------------------------------




--------------------------------------- Iteration      1(   5)  ---------------------------------------


     EDDAV:  cpu time     33.1569: real time     33.1575
       DOS:  cpu time      0.0022: real time      0.0023
    CHARGE:  cpu time      1.3056: real time      1.3057
    MIXING:  cpu time      0.0060: real time      0.0060
    --------------------------------------------
      LOOP:  cpu time     34.4707: real time     34.4716

 eigenvalue-minimisations  :  6544
 total energy-change (2. order) :-0.5803450E+01  (-0.5717297E+01)
 number of electron     384.0000003 magnetization 
 augmentation part       98.4248391 magnetization 

 Broyden mixing:
  rms(total) = 0.34178E+01    rms(broyden)= 0.34173E+01
  rms(prec ) = 0.43774E+01
  weight for this iteration     100.00

 Free energy of the ion-electron system (eV)
  ---------------------------------------------------
  alpha Z        PSCENC =      1455.32177217
  Ewald energy   TEWEN  =    -30728.61046270
  -Hartree energ DENC   =    -10618.25325038
  -exchange      EXHF   =         0.00000000
  -V(xc)+E(xc)   XCENC  =      1243.09503054
  PAW double counting   =     34040.00696010   -33495.80632930
  entropy T*S    EENTRO =        -0.00000000
  eigenvalues    EBANDS =     -2477.81085799
  atomic energy  EATOM  =     40341.65184589
  Solvation  Ediel_sol  =         0.00000000
  ---------------------------------------------------
  free energy    TOTEN  =      -240.40529165 eV

  energy without entropy =     -240.40529165  energy(sigma->0) =     -240.40529165


--------------------------------------------------------------------------------------------------------




--------------------------------------- Iteration      1(   6)  ---------------------------------------


    POTLOK:  cpu time      0.1586: real time      0.1587
    SETDIJ:  cpu time      0.6741: real time      0.6744
     EDDAV:  cpu time     38.0564: real time     38.0713
       DOS:  cpu time      0.0015: real time      0.0016
    CHARGE:  cpu time      1.3053: real time      1.3053
    MIXING:  cpu time      0.0059: real time      0.0059
    --------------------------------------------
      LOOP:  cpu time     40.2018: real time     40.2171

 eigenvalue-minimisations  :  7856
 total energy-change (2. order) : 0.3377626E+02  (-0.1360707E+02)
 number of electron     384.0000003 magnetization 
 augmentation part       95.3353932 magnetization 

 Broyden mixing:
  rms(total) = 0.12532E+01    rms(broyden)= 0.12520E+01
  rms(prec ) = 0.15020E+01
  weight for this iteration     100.00

 eigenvalues of (default mixing * dielectric matrix)
  average eigenvalue GAMMA=   0.7958
  0.7958

 Free energy of the ion-electron system (eV)
  ---------------------------------------------------
  alpha Z        PSCENC =      1455.32177217
  Ewald energy   TEWEN  =    -30728.61046270
  -Hartree energ DENC   =    -10867.51243608
  -exchange      EXHF   =         0.00000000
  -V(xc)+E(xc)   XCENC  =      1262.52727826
  PAW double counting   =     34939.36112588   -34356.75095468
  entropy T*S    EENTRO =        -0.00000000
  eigenvalues    EBANDS =     -2252.61720270
  atomic energy  EATOM  =     40341.65184589
  Solvation  Ediel_sol  =         0.00000000
  ---------------------------------------------------
  free energy    TOTEN  =      -206.62903394 eV

  energy without entropy =     -206.62903394  energy(sigma->0) =     -206.62903394


--------------------------------------------------------------------------------------------------------




--------------------------------------- Iteration      1(   7)  ---------------------------------------


    POTLOK:  cpu time      0.1594: real time      0.1594
    SETDIJ:  cpu time      0.6766: real time      0.6774
     EDDAV:  cpu time     31.3780: real time     31.3782
       DOS:  cpu time      0.0014: real time      0.0015
    CHARGE:  cpu time      1.3055: real time      1.3061
    MIXING:  cpu time      0.0058: real time      0.0058
    --------------------------------------------
      LOOP:  cpu time     33.5266: real time     33.5285

 eigenvalue-minimisations  :  6064
 total energy-change (2. order) :-0.4599282E+00  (-0.2983385E+01)
 number of electron     384.0000003 magnetization 
 augmentation part       94.9906784 magnetization 

 Broyden mixing:
  rms(total) = 0.82946E+00    rms(broyden)= 0.82946E+00
  rms(prec ) = 0.90884E+00
  weight for this iteration     100.00

 eigenvalues of (default mixing * dielectric matrix)
  average eigenvalue GAMMA=   1.1186
  1.1186  1.1186

 Free energy of the ion-electron system (eV)
  ---------------------------------------------------
  alpha Z        PSCENC =      1455.32177217
  Ewald energy   TEWEN  =    -30728.61046270
  -Hartree energ DENC   =    -10790.75865050
  -exchange      EXHF   =         0.00000000
  -V(xc)+E(xc)   XCENC  =      1259.96184345
  PAW double counting   =     35877.54738545   -35288.64101177
  entropy T*S    EENTRO =        -0.00000000
  eigenvalues    EBANDS =     -2333.56168416
  atomic energy  EATOM  =     40341.65184589
  Solvation  Ediel_sol  =         0.00000000
  ---------------------------------------------------
  free energy    TOTEN  =      -207.08896217 eV

  energy without entropy =     -207.08896217  energy(sigma->0) =     -207.08896217


--------------------------------------------------------------------------------------------------------




--------------------------------------- Iteration      1(   8)  ---------------------------------------


    POTLOK:  cpu time      0.1582: real time      0.1583
    SETDIJ:  cpu time      0.6756: real time      0.6756
     EDDAV:  cpu time     38.9385: real time     38.9642
       DOS:  cpu time      0.0016: real time      0.0018
    CHARGE:  cpu time      1.3072: real time      1.3082
    MIXING:  cpu time      0.0055: real time      0.0055
    --------------------------------------------
      LOOP:  cpu time     41.0867: real time     41.1135

 eigenvalue-minimisations  :  8104
 total energy-change (2. order) :-0.1072839E+00  (-0.5751780E+00)
 number of electron     384.0000003 magnetization 
 augmentation part       95.3212966 magnetization 

 Broyden mixing:
  rms(total) = 0.37590E+00    rms(broyden)= 0.37580E+00
  rms(prec ) = 0.44125E+00
  weight for this iteration     100.00

 eigenvalues of (default mixing * dielectric matrix)
  average eigenvalue GAMMA=   1.3424
  2.3348  0.8462  0.8462

 Free energy of the ion-electron system (eV)
  ---------------------------------------------------
  alpha Z        PSCENC =      1455.32177217
  Ewald energy   TEWEN  =    -30728.61046270
  -Hartree energ DENC   =    -10774.42424276
  -exchange      EXHF   =         0.00000000
  -V(xc)+E(xc)   XCENC  =      1259.00590574
  PAW double counting   =     36391.64112310   -35798.84465009
  entropy T*S    EENTRO =        -0.00000000
  eigenvalues    EBANDS =     -2352.93753740
  atomic energy  EATOM  =     40341.65184589
  Solvation  Ediel_sol  =         0.00000000
  ---------------------------------------------------
  free energy    TOTEN  =      -207.19624605 eV

  energy without entropy =     -207.19624605  energy(sigma->0) =     -207.19624605


--------------------------------------------------------------------------------------------------------




--------------------------------------- Iteration      1(   9)  ---------------------------------------


    POTLOK:  cpu time      0.1586: real time      0.1587
    SETDIJ:  cpu time      0.6783: real time      0.6783
     EDDAV:  cpu time     36.4299: real time     36.4517
       DOS:  cpu time      0.0016: real time      0.0017
    CHARGE:  cpu time      1.2997: real time      1.3037
    MIXING:  cpu time      0.0066: real time      0.0066
    --------------------------------------------
      LOOP:  cpu time     38.5748: real time     38.6008

 eigenvalue-minimisations  :  7432
 total energy-change (2. order) : 0.9488143E-01  (-0.6191445E-01)
 number of electron     384.0000003 magnetization 
 augmentation part       95.0535708 magnetization 

 Broyden mixing:
  rms(total) = 0.13445E+00    rms(broyden)= 0.13444E+00
  rms(prec ) = 0.15725E+00
  weight for this iteration     100.00

 eigenvalues of (default mixing * dielectric matrix)
  average eigenvalue GAMMA=   1.3412
  2.4966  1.1753  0.8464  0.8464

 Free energy of the ion-electron system (eV)
  ---------------------------------------------------
  alpha Z        PSCENC =      1455.32177217
  Ewald energy   TEWEN  =    -30728.61046270
  -Hartree energ DENC   =    -10804.79723902
  -exchange      EXHF   =         0.00000000
  -V(xc)+E(xc)   XCENC  =      1260.97253973
  PAW double counting   =     36905.40302146   -36308.18937264
  entropy T*S    EENTRO =        -0.00000000
  eigenvalues    EBANDS =     -2328.85346952
  atomic energy  EATOM  =     40341.65184589
  Solvation  Ediel_sol  =         0.00000000
  ---------------------------------------------------
  free energy    TOTEN  =      -207.10136462 eV

  energy without entropy =     -207.10136462  energy(sigma->0) =     -207.10136462


--------------------------------------------------------------------------------------------------------




--------------------------------------- Iteration      1(  10)  ---------------------------------------


    POTLOK:  cpu time      0.1570: real time      0.1574
    SETDIJ:  cpu time      0.6734: real time      0.6738
     EDDAV:  cpu time     34.9026: real time     34.9016
       DOS:  cpu time      0.0018: real time      0.0020
    CHARGE:  cpu time      1.3014: real time      1.3016
    MIXING:  cpu time      0.0065: real time      0.0065
    --------------------------------------------
      LOOP:  cpu time     37.0428: real time     37.0430

 eigenvalue-minimisations  :  7016
 total energy-change (2. order) : 0.4416091E-02  (-0.1463983E-01)
 number of electron     384.0000003 magnetization 
 augmentation part       95.0490908 magnetization 

 Broyden mixing:
  rms(total) = 0.33739E-01    rms(broyden)= 0.33730E-01
  rms(prec ) = 0.35899E-01
  weight for this iteration     100.00

 eigenvalues of (default mixing * dielectric matrix)
  average eigenvalue GAMMA=   1.1984
  2.4502  1.1189  0.8502  0.8502  0.7228

 Free energy of the ion-electron system (eV)
  ---------------------------------------------------
  alpha Z        PSCENC =      1455.32177217
  Ewald energy   TEWEN  =    -30728.61046270
  -Hartree energ DENC   =    -10797.99603806
  -exchange      EXHF   =         0.00000000
  -V(xc)+E(xc)   XCENC  =      1260.72668222
  PAW double counting   =     37073.47809606   -36476.41255181
  entropy T*S    EENTRO =        -0.00000000
  eigenvalues    EBANDS =     -2335.25629231
  atomic energy  EATOM  =     40341.65184589
  Solvation  Ediel_sol  =         0.00000000
  ---------------------------------------------------
  free energy    TOTEN  =      -207.09694853 eV

  energy without entropy =     -207.09694853  energy(sigma->0) =     -207.09694853


--------------------------------------------------------------------------------------------------------




--------------------------------------- Iteration      1(  11)  ---------------------------------------


    POTLOK:  cpu time      0.1584: real time      0.1585
    SETDIJ:  cpu time      0.6748: real time      0.6747
     EDDAV:  cpu time     35.6199: real time     35.6261
       DOS:  cpu time      0.0018: real time      0.0019
    CHARGE:  cpu time      1.3047: real time      1.3052
    MIXING:  cpu time      0.0065: real time      0.0065
    --------------------------------------------
      LOOP:  cpu time     37.7660: real time     37.7729

 eigenvalue-minimisations  :  7200
 total energy-change (2. order) :-0.1727344E-02  (-0.1872420E-02)
 number of electron     384.0000003 magnetization 
 augmentation part       95.0601539 magnetization 

 Broyden mixing:
  rms(total) = 0.30335E-01    rms(broyden)= 0.30333E-01
  rms(prec ) = 0.32978E-01
  weight for this iteration     100.00

 eigenvalues of (default mixing * dielectric matrix)
  average eigenvalue GAMMA=   1.4004
  2.0022  2.0022  0.8363  0.8363  1.5838  1.1415

 Free energy of the ion-electron system (eV)
  ---------------------------------------------------
  alpha Z        PSCENC =      1455.32177217
  Ewald energy   TEWEN  =    -30728.61046270
  -Hartree energ DENC   =    -10797.73761308
  -exchange      EXHF   =         0.00000000
  -V(xc)+E(xc)   XCENC  =      1260.73113279
  PAW double counting   =     37050.61690941   -36453.90217099
  entropy T*S    EENTRO =        -0.00000000
  eigenvalues    EBANDS =     -2335.17008937
  atomic energy  EATOM  =     40341.65184589
  Solvation  Ediel_sol  =         0.00000000
  ---------------------------------------------------
  free energy    TOTEN  =      -207.09867587 eV

  energy without entropy =     -207.09867587  energy(sigma->0) =     -207.09867587


--------------------------------------------------------------------------------------------------------




--------------------------------------- Iteration      1(  12)  ---------------------------------------


    POTLOK:  cpu time      0.1586: real time      0.1587
    SETDIJ:  cpu time      0.6733: real time      0.6738
     EDDAV:  cpu time     37.5075: real time     37.5456
       DOS:  cpu time      0.0016: real time      0.0018
    CHARGE:  cpu time      1.3009: real time      1.3038
    MIXING:  cpu time      0.0090: real time      0.0090
    --------------------------------------------
      LOOP:  cpu time     39.6509: real time     39.6927

 eigenvalue-minimisations  :  7720
 total energy-change (2. order) :-0.5540287E-03  (-0.7724659E-03)
 number of electron     384.0000003 magnetization 
 augmentation part       95.0343837 magnetization 

 Broyden mixing:
  rms(total) = 0.16069E-01    rms(broyden)= 0.16064E-01
  rms(prec ) = 0.18846E-01
  weight for this iteration     100.00

 eigenvalues of (default mixing * dielectric matrix)
  average eigenvalue GAMMA=   1.3960
  2.4157  2.4157  0.8250  0.8250  1.1560  1.1560  0.9788

 Free energy of the ion-electron system (eV)
  ---------------------------------------------------
  alpha Z        PSCENC =      1455.32177217
  Ewald energy   TEWEN  =    -30728.61046270
  -Hartree energ DENC   =    -10798.54192273
  -exchange      EXHF   =         0.00000000
  -V(xc)+E(xc)   XCENC  =      1260.83106302
  PAW double counting   =     37027.39089623   -36431.34331822
  entropy T*S    EENTRO =        -0.00000000
  eigenvalues    EBANDS =     -2333.79910356
  atomic energy  EATOM  =     40341.65184589
  Solvation  Ediel_sol  =         0.00000000
  ---------------------------------------------------
  free energy    TOTEN  =      -207.09922990 eV

  energy without entropy =     -207.09922990  energy(sigma->0) =     -207.09922990


--------------------------------------------------------------------------------------------------------




--------------------------------------- Iteration      1(  13)  ---------------------------------------


    POTLOK:  cpu time      0.1577: real time      0.1578
    SETDIJ:  cpu time      0.6749: real time      0.6751
     EDDAV:  cpu time     33.5714: real time     33.6007
       DOS:  cpu time      0.0013: real time      0.0014
    CHARGE:  cpu time      1.3041: real time      1.3044
    MIXING:  cpu time      0.0067: real time      0.0067
    --------------------------------------------
      LOOP:  cpu time     35.7161: real time     35.7461

 eigenvalue-minimisations  :  6664
 total energy-change (2. order) : 0.1482177E-03  (-0.9929295E-04)
 number of electron     384.0000003 magnetization 
 augmentation part       95.0360006 magnetization 

 Broyden mixing:
  rms(total) = 0.61521E-02    rms(broyden)= 0.61516E-02
  rms(prec ) = 0.69386E-02
  weight for this iteration     100.00

 eigenvalues of (default mixing * dielectric matrix)
  average eigenvalue GAMMA=   1.4070
  2.5441  2.5441  1.2635  0.8328  0.8328  0.9527  1.1431  1.1431

 Free energy of the ion-electron system (eV)
  ---------------------------------------------------
  alpha Z        PSCENC =      1455.32177217
  Ewald energy   TEWEN  =    -30728.61046270
  -Hartree energ DENC   =    -10798.04647293
  -exchange      EXHF   =         0.00000000
  -V(xc)+E(xc)   XCENC  =      1260.80791952
  PAW double counting   =     37026.31667667   -36430.48544614
  entropy T*S    EENTRO =        -0.00000000
  eigenvalues    EBANDS =     -2334.05491416
  atomic energy  EATOM  =     40341.65184589
  Solvation  Ediel_sol  =         0.00000000
  ---------------------------------------------------
  free energy    TOTEN  =      -207.09908168 eV

  energy without entropy =     -207.09908168  energy(sigma->0) =     -207.09908168


--------------------------------------------------------------------------------------------------------




--------------------------------------- Iteration      1(  14)  ---------------------------------------


    POTLOK:  cpu time      0.1591: real time      0.1592
    SETDIJ:  cpu time      0.6697: real time      0.6699
     EDDAV:  cpu time     32.9538: real time     32.9901
       DOS:  cpu time      0.0018: real time      0.0019
    CHARGE:  cpu time      1.3021: real time      1.3036
    MIXING:  cpu time      0.0070: real time      0.0070
    --------------------------------------------
      LOOP:  cpu time     35.0935: real time     35.1318

 eigenvalue-minimisations  :  6504
 total energy-change (2. order) :-0.2472298E-06  (-0.1812411E-04)
 number of electron     384.0000003 magnetization 
 augmentation part       95.0381944 magnetization 

 Broyden mixing:
  rms(total) = 0.35891E-02    rms(broyden)= 0.35888E-02
  rms(prec ) = 0.41371E-02
  weight for this iteration     100.00

 eigenvalues of (default mixing * dielectric matrix)
  average eigenvalue GAMMA=   1.3383
  2.4826  2.4826  1.4009  1.2318  1.2318  0.9615  0.8332  0.8332  0.5869

 Free energy of the ion-electron system (eV)
  ---------------------------------------------------
  alpha Z        PSCENC =      1455.32177217
  Ewald energy   TEWEN  =    -30728.61046270
  -Hartree energ DENC   =    -10798.07928839
  -exchange      EXHF   =         0.00000000
  -V(xc)+E(xc)   XCENC  =      1260.80843258
  PAW double counting   =     37021.82726735   -36426.00735751
  entropy T*S    EENTRO =        -0.00000000
  eigenvalues    EBANDS =     -2334.01129132
  atomic energy  EATOM  =     40341.65184589
  Solvation  Ediel_sol  =         0.00000000
  ---------------------------------------------------
  free energy    TOTEN  =      -207.09908193 eV

  energy without entropy =     -207.09908193  energy(sigma->0) =     -207.09908193


--------------------------------------------------------------------------------------------------------




--------------------------------------- Iteration      1(  15)  ---------------------------------------


    POTLOK:  cpu time      0.1575: real time      0.1576
    SETDIJ:  cpu time      0.6744: real time      0.6765
     EDDAV:  cpu time     35.8799: real time     35.8866
       DOS:  cpu time      0.0018: real time      0.0019
    CHARGE:  cpu time      1.3032: real time      1.3042
    MIXING:  cpu time      0.0068: real time      0.0068
    --------------------------------------------
      LOOP:  cpu time     38.0237: real time     38.0335

 eigenvalue-minimisations  :  7280
 total energy-change (2. order) : 0.1434029E-04  (-0.7149731E-05)
 number of electron     384.0000003 magnetization 
 augmentation part       95.0402655 magnetization 

 Broyden mixing:
  rms(total) = 0.98604E-03    rms(broyden)= 0.98478E-03
  rms(prec ) = 0.10544E-02
  weight for this iteration     100.00

 eigenvalues of (default mixing * dielectric matrix)
  average eigenvalue GAMMA=   1.4234
  2.6688  2.6688  2.1319  1.2350  1.2350  0.9543  0.8336  0.8336  0.8366  0.8366

 Free energy of the ion-electron system (eV)
  ---------------------------------------------------
  alpha Z        PSCENC =      1455.32177217
  Ewald energy   TEWEN  =    -30728.61046270
  -Hartree energ DENC   =    -10797.98691421
  -exchange      EXHF   =         0.00000000
  -V(xc)+E(xc)   XCENC  =      1260.80099698
  PAW double counting   =     37020.26121222   -36424.42142153
  entropy T*S    EENTRO =        -0.00000000
  eigenvalues    EBANDS =     -2334.11609642
  atomic energy  EATOM  =     40341.65184589
  Solvation  Ediel_sol  =         0.00000000
  ---------------------------------------------------
  free energy    TOTEN  =      -207.09906759 eV

  energy without entropy =     -207.09906759  energy(sigma->0) =     -207.09906759


--------------------------------------------------------------------------------------------------------




--------------------------------------- Iteration      1(  16)  ---------------------------------------


    POTLOK:  cpu time      0.1588: real time      0.1588
    SETDIJ:  cpu time      0.6732: real time      0.6733
     EDDAV:  cpu time     33.2004: real time     33.1999
       DOS:  cpu time      0.0017: real time      0.0017
    CHARGE:  cpu time      1.3034: real time      1.3035
    MIXING:  cpu time      0.0070: real time      0.0070
    --------------------------------------------
[...]
    180       5.8810      2.00000
    181       6.3068      2.00000
    182       6.3427      2.00000
    183       6.3427      2.00000
    184       6.3652      2.00000
    185       6.9578      2.00000
    186       6.9578      2.00000
    187       6.9975      2.00000
    188       7.0238      2.00000
    189       7.0916      2.00000
    190       7.0916      2.00000
    191       7.1137      2.00000
    192       7.1348      2.00000
    193       9.2630      0.00000
    194       9.3010      0.00000
    195       9.3010      0.00000
    196       9.3351      0.00000
    197      10.0856      0.00000
    198      10.1191      0.00000
    199      10.1191      0.00000
    200      10.1485      0.00000
    201      10.3937      0.00000
    202      10.4038      0.00000
    203      10.4237      0.00000
    204      10.4237      0.00000
    205      10.7326      0.00000
    206      10.7559      0.00000
    207      10.7766      0.00000
    208      10.7766      0.00000
    209      11.2140      0.00000
    210      11.2140      0.00000
    211      11.2458      0.00000
    212      11.2778      0.00000
    213      11.3254      0.00000
    214      11.3536      0.00000
    215      11.3536      0.00000
    216      11.3869      0.00000
    217      12.2587      0.00000
    218      12.2587      0.00000
    219      12.2764      0.00000
    220      12.2877      0.00000
    221      12.4331      0.00000
    222      12.4331      0.00000
    223      12.4340      0.00000
    224      12.4573      0.00000
    225      12.9064      0.00000
    226      12.9470      0.00000
    227      12.9470      0.00000
    228      12.9601      0.00000
    229      12.9969      0.00000
    230      12.9969      0.00000
    231      13.0864      0.00000
    232      13.0923      0.00000


--------------------------------------------------------------------------------------------------------


 soft charge-density along one line, spin component           1
         0         1         2         3         4         5         6         7         8         9
 total charge-density along one line
 
 pseudopotential strength for first ion, spin component:           1
-16.833   0.001   0.001   0.001  -0.000   3.389  -0.000  -0.000
  0.001 -16.813   0.001  -0.001  -0.001  -0.000   3.380  -0.000
  0.001   0.001 -16.838   0.001   0.000  -0.000  -0.000   3.394
  0.001  -0.001   0.001 -16.813   0.001  -0.000   0.000  -0.000
 -0.000  -0.001   0.000   0.001 -16.816   0.000   0.000  -0.000
  3.389  -0.000  -0.000  -0.000   0.000   6.073   0.000   0.000
 -0.000   3.380  -0.000   0.000   0.000   0.000   6.076   0.000
 -0.000  -0.000   3.394  -0.000  -0.000   0.000   0.000   6.074
 -0.000   0.000  -0.000   3.380  -0.000   0.000  -0.000   0.000
  0.000   0.000  -0.000  -0.000   3.380   0.000  -0.000   0.000
 -0.000   0.000   0.004   0.000   0.000   0.000  -0.000   0.003
  0.000  -0.000  -0.006  -0.000   0.000  -0.000   0.000  -0.004
  0.000  -0.018  -0.000  -0.000  -0.000   0.000   0.004   0.000
 -0.000   0.000  -0.021   0.000   0.000  -0.000   0.000   0.003
  0.000  -0.000  -0.000  -0.018   0.000   0.000  -0.000   0.000
  0.000  -0.030  -0.000  -0.000  -0.000   0.000   0.003   0.000
 -0.000   0.000  -0.033   0.000   0.000  -0.000   0.000   0.001
  0.000  -0.000  -0.000  -0.030   0.000   0.000  -0.000   0.000
 total augmentation occupancy for first ion, spin component:           1
  2.000   0.000   0.000   0.000   0.000  -0.002   0.000   0.000   0.000   0.000  -0.000  -0.000  -0.000  -0.000  -0.000   0.000
  0.000   1.999  -0.000  -0.000  -0.000   0.000  -0.003   0.000  -0.000  -0.000   0.000   0.000   0.037  -0.000  -0.000  -0.013
  0.000  -0.000   2.001  -0.000  -0.000   0.000   0.000   0.001   0.000   0.000   0.001   0.001   0.000   0.035   0.000  -0.000
  0.000  -0.000  -0.000   1.999   0.000   0.000  -0.000   0.000  -0.003   0.000   0.000   0.000  -0.000  -0.000   0.037   0.000
  0.000  -0.000  -0.000   0.000   1.999   0.000  -0.000   0.000   0.000  -0.005   0.000   0.000   0.000   0.000  -0.000  -0.000
 -0.002   0.000   0.000   0.000   0.000   0.025   0.000   0.000   0.000   0.000  -0.001  -0.000   0.002  -0.002   0.002  -0.000
  0.000  -0.003   0.000  -0.000  -0.000   0.000   0.054   0.000  -0.001  -0.000   0.000   0.001  -0.083   0.000  -0.002   0.012
  0.000   0.000   0.001   0.000   0.000   0.000   0.000   0.018   0.000  -0.000   0.012  -0.004  -0.001   0.004  -0.001   0.000
  0.000  -0.000   0.000  -0.003   0.000   0.000  -0.001   0.000   0.054   0.000   0.000   0.001  -0.002   0.000  -0.083   0.000
  0.000  -0.000   0.000   0.000  -0.005   0.000  -0.000  -0.000   0.000   0.057   0.000  -0.000   0.000   0.000  -0.000  -0.000
 -0.000   0.000   0.001   0.000   0.000  -0.001   0.000   0.012   0.000   0.000   2.047  -0.022  -0.001   0.180  -0.001  -0.000
 -0.000   0.000   0.001   0.000   0.000  -0.000   0.001  -0.004   0.001  -0.000  -0.022   0.034   0.001  -0.083   0.001  -0.000
 -0.000   0.037   0.000  -0.000   0.000   0.002  -0.083  -0.001  -0.002   0.000  -0.001   0.001   0.946   0.007  -0.007  -0.091
 -0.000  -0.000   0.035  -0.000   0.000  -0.002   0.000   0.004   0.000   0.000   0.180  -0.083   0.007   1.034   0.007  -0.001
 -0.000  -0.000   0.000   0.037  -0.000   0.002  -0.002  -0.001  -0.083  -0.000  -0.001   0.001  -0.007   0.007   0.946   0.001
  0.000  -0.013  -0.000   0.000  -0.000  -0.000   0.012   0.000   0.000  -0.000  -0.000  -0.000  -0.091  -0.001   0.001   0.011
  0.000   0.000  -0.020   0.000  -0.000   0.000   0.000   0.000   0.000   0.000  -0.012   0.008  -0.001  -0.096  -0.001   0.000
  0.000   0.000  -0.000  -0.013   0.000  -0.000   0.000   0.000   0.012   0.000  -0.000  -0.000   0.001  -0.001  -0.091  -0.000


------------------------ aborting loop because EDIFF is reached ----------------------------------------


    CHARGE:  cpu time      1.3060: real time      1.3061
    FORLOC:  cpu time      0.0152: real time      0.0152
    FORNL :  cpu time      8.5225: real time      8.5245
    STRESS:  cpu time     19.0690: real time     19.0688
    FORCOR:  cpu time      0.1612: real time      0.1614
    FORHAR:  cpu time      0.0538: real time      0.0538
    MIXING:  cpu time      0.0046: real time      0.0047
    OFIELD:  cpu time      0.0001: real time      0.0001

  FORCE on cell =-STRESS in cart. coord.  units (eV):
  Direction    XX          YY          ZZ          XY          YZ          ZX
  --------------------------------------------------------------------------------------
  Alpha Z  1455.32177  1455.32177  1455.32177
  Ewald   -8920.68487 -8920.68487-12887.34116    -0.00000     0.00000    -0.00000
  Hartree  4814.29582  4814.29582  1169.41941    -0.00000    -0.00000    -0.00000
  E(xc)   -1833.98264 -1833.98264 -1835.03933    -0.00000     0.00000     0.00000
  Local   -4236.44669 -4236.44669  3390.72956     0.00000     0.00000    -0.00000
  n-local  1595.83624  1601.18545  1610.84837     0.74368    -0.05998     0.14317
  augment  2176.56251  2176.56251  2160.16450     0.00000     0.00000     0.00000
  Kinetic  4984.30395  4992.35974  4968.48067    -4.19206     0.46930    -0.64978
  Fock        0.00000     0.00000     0.00000     0.00000     0.00000     0.00000
  -------------------------------------------------------------------------------------
  Total      41.90860    41.90860    32.58380     0.00000     0.00000     0.00000
  in kB      96.73513    96.73513    75.21125     0.00000     0.00000     0.00000
  external pressure =       89.56 kB  Pullay stress =        0.00 kB


 VOLUME and BASIS-vectors are now :
 -----------------------------------------------------------------------------
  energy-cutoff  :      520.00
  volume of cell :      694.11
      direct lattice vectors                 reciprocal lattice vectors
     7.604954277  0.000000000  0.000000000     0.131493230  0.000000000  0.000000000
     0.000000000  7.604954277  0.000000000     0.000000000  0.131493230  0.000000000
     0.000000000  0.000000000 12.001520752     0.000000000  0.000000000  0.083322774

  length of vectors
     7.604954277  7.604954277 12.001520752     0.131493230  0.131493230  0.083322774


 FORCES acting on ions
    electron-ion (+dipol)            ewald-force                    non-local-force                 convergence-correction
 -----------------------------------------------------------------------------------------------
   -.748E+01 -.748E+01 -.419E+03   0.734E+01 0.734E+01 0.431E+03   0.141E+00 0.141E+00 -.116E+02   0.105E-05 0.105E-05 -.197E-05
   0.748E+01 -.748E+01 -.419E+03   -.734E+01 0.734E+01 0.431E+03   -.141E+00 0.141E+00 -.116E+02   -.105E-05 0.105E-05 -.197E-05
   -.748E+01 0.748E+01 -.419E+03   0.734E+01 -.734E+01 0.431E+03   0.141E+00 -.141E+00 -.116E+02   0.105E-05 -.105E-05 -.197E-05
   0.748E+01 0.748E+01 -.419E+03   -.734E+01 -.734E+01 0.431E+03   -.141E+00 -.141E+00 -.116E+02   -.105E-05 -.105E-05 -.197E-05
   -.296E-13 -.269E-11 0.452E+03   -.853E-13 -.284E-13 -.464E+03   -.691E-18 -.977E-19 0.115E+02   0.365E-11 0.256E-12 0.326E-06
   0.757E-12 0.324E-11 0.450E+03   -.284E-13 0.342E-13 -.461E+03   -.244E-18 0.101E-17 0.114E+02   -.393E-11 -.195E-11 -.747E-06
   -.279E-13 0.157E-11 0.450E+03   0.227E-12 0.284E-13 -.461E+03   0.671E-18 -.414E-18 0.114E+02   -.170E-12 0.693E-12 -.747E-06
   0.810E-12 0.362E-11 0.449E+03   -.142E-12 -.143E-12 -.461E+03   -.221E-18 -.329E-18 0.114E+02   -.451E-13 0.958E-13 -.235E-05
   -.558E-13 0.239E-11 -.452E+03   -.142E-12 0.284E-13 0.464E+03   0.696E-18 0.129E-18 -.115E+02   0.665E-11 0.166E-11 -.326E-06
   0.779E-12 -.312E-11 -.450E+03   -.114E-12 0.249E-13 0.461E+03   0.543E-18 0.172E-18 -.114E+02   -.668E-11 0.370E-11 0.748E-06
   -.530E-13 0.544E-12 -.450E+03   0.171E-12 0.284E-13 0.461E+03   -.797E-18 -.403E-18 -.114E+02   0.205E-11 -.158E-12 0.747E-06
   0.759E-12 0.262E-11 -.449E+03   -.568E-13 0.744E-14 0.461E+03   0.542E-18 -.492E-18 -.114E+02   -.202E-11 -.574E-12 0.235E-05
   -.748E+01 -.748E+01 0.419E+03   0.734E+01 0.734E+01 -.431E+03   0.141E+00 0.141E+00 0.116E+02   0.105E-05 0.105E-05 0.197E-05
   0.748E+01 -.748E+01 0.419E+03   -.734E+01 0.734E+01 -.431E+03   -.141E+00 0.141E+00 0.116E+02   -.105E-05 0.105E-05 0.197E-05
   -.748E+01 0.748E+01 0.419E+03   0.734E+01 -.734E+01 -.431E+03   0.141E+00 -.141E+00 0.116E+02   0.105E-05 -.105E-05 0.197E-05
   0.748E+01 0.748E+01 0.419E+03   -.734E+01 -.734E+01 -.431E+03   -.141E+00 -.141E+00 0.116E+02   -.105E-05 -.105E-05 0.197E-05
   0.452E-13 0.454E-13 0.452E-12   -.284E-13 -.142E-13 0.959E-13   -.104E-27 0.897E-27 0.604E-27   -.193E-12 -.685E-12 -.270E-11
   0.151E-13 0.323E-13 0.627E-13   0.114E-12 0.142E-13 0.131E-12   -.197E-27 -.914E-28 0.939E-27   -.420E-11 0.380E-12 -.174E-11
   0.445E-13 -.465E-12 0.396E-12   -.114E-12 -.284E-13 0.604E-13   0.187E-27 0.210E-27 0.416E-27   0.417E-11 0.616E-12 -.248E-11
   -.215E+01 -.215E+01 -.105E-06   0.216E+01 0.216E+01 -.560E-13   -.991E-02 -.991E-02 0.648E-20   0.721E-06 0.721E-06 0.199E-11
   0.215E+01 -.215E+01 -.132E-11   -.216E+01 0.216E+01 -.631E-13   0.991E-02 -.991E-02 -.618E-20   -.721E-06 0.721E-06 0.193E-11
   -.215E+01 0.215E+01 0.210E-11   0.216E+01 -.216E+01 -.981E-14   -.991E-02 0.991E-02 -.532E-20   0.721E-06 -.721E-06 0.199E-11
   0.215E+01 0.215E+01 0.105E-06   -.216E+01 -.216E+01 -.844E-13   0.991E-02 0.991E-02 0.565E-20   -.721E-06 -.721E-06 0.236E-11
   0.110E-13 -.291E+01 0.923E+01   0.114E-12 0.293E+01 -.938E+01   -.183E-18 -.184E-01 0.149E+00   -.219E-12 0.533E-06 -.447E-05
   0.273E-12 -.232E+01 0.351E+01   -.284E-13 0.233E+01 -.337E+01   0.266E-18 -.816E-02 -.142E+00   0.183E-12 0.517E-06 -.249E-05
   0.677E-14 0.291E+01 0.923E+01   0.711E-13 -.293E+01 -.938E+01   -.511E-19 0.184E-01 0.149E+00   -.770E-12 -.533E-06 -.447E-05
   0.262E-12 0.232E+01 0.351E+01   -.426E-13 -.233E+01 -.337E+01   -.306E-18 0.816E-02 -.142E+00   0.725E-12 -.517E-06 -.249E-05
   -.291E+01 0.540E-12 0.923E+01   0.293E+01 -.355E-13 -.938E+01   -.184E-01 -.174E-18 0.149E+00   0.533E-06 -.452E-12 -.447E-05
   0.291E+01 0.777E-12 0.923E+01   -.293E+01 -.853E-13 -.938E+01   0.184E-01 -.512E-18 0.149E+00   -.533E-06 -.313E-13 -.447E-05
   -.232E+01 -.213E-12 0.351E+01   0.233E+01 -.249E-13 -.337E+01   -.816E-02 -.454E-18 -.142E+00   0.517E-06 -.708E-13 -.249E-05
   0.232E+01 -.417E-11 0.351E+01   -.233E+01 0.000E+00 -.337E+01   0.816E-02 0.805E-19 -.142E+00   -.517E-06 0.746E-12 -.249E-05
   -.291E+01 -.671E-12 -.923E+01   0.293E+01 0.107E-13 0.938E+01   -.184E-01 -.439E-19 -.149E+00   0.533E-06 0.104E-11 0.447E-05
   0.291E+01 -.385E-12 -.923E+01   -.293E+01 -.284E-13 0.938E+01   0.184E-01 0.196E-18 -.149E+00   -.533E-06 0.338E-11 0.447E-05
   -.232E+01 -.710E-12 -.351E+01   0.233E+01 -.213E-13 0.337E+01   -.816E-02 -.956E-19 0.142E+00   0.517E-06 -.302E-12 0.249E-05
   0.232E+01 -.908E-11 -.351E+01   -.233E+01 0.142E-13 0.337E+01   0.816E-02 -.208E-18 0.142E+00   -.517E-06 -.717E-12 0.249E-05
   0.570E-13 -.291E+01 -.923E+01   0.995E-13 0.293E+01 0.938E+01   0.173E-18 -.184E-01 -.149E+00   0.146E-11 0.533E-06 0.447E-05
   0.296E-12 -.232E+01 -.351E+01   -.568E-13 0.233E+01 0.337E+01   0.352E-18 -.816E-02 0.142E+00   -.145E-11 0.517E-06 0.249E-05
   0.561E-13 0.291E+01 -.923E+01   0.568E-13 -.293E+01 0.938E+01   -.299E-18 0.184E-01 -.149E+00   0.287E-11 -.533E-06 0.447E-05
   0.286E-12 0.232E+01 -.351E+01   -.142E-13 -.233E+01 0.337E+01   0.184E-18 0.816E-02 0.142E+00   -.285E-11 -.517E-06 0.249E-05
   0.186E-13 0.251E-13 0.427E-13   0.853E-13 0.000E+00 0.110E-12   0.106E-26 0.208E-26 0.597E-27   0.215E-12 -.267E-12 -.265E-11
 -----------------------------------------------------------------------------------------------
   0.215E-10 0.602E-11 0.301E-09   0.000E+00 -.208E-12 -.643E-12   0.282E-16 -.226E-16 -.141E-13   -.115E-11 0.526E-11 -.251E-10
 
 
 POSITION                                       TOTAL-FORCE (eV/Angst)
 -----------------------------------------------------------------------------------
      1.89126      1.89126     10.30223        -0.000001     -0.000001      0.000002
      5.71370      1.89126     10.30223         0.000001     -0.000001      0.000002
      1.89126      5.71370     10.30223        -0.000001      0.000001      0.000002
      5.71370      5.71370     10.30223         0.000001      0.000001      0.000002
      0.00000      0.00000      7.70988        -0.000000      0.000000     -0.000002
      3.80248      0.00000      7.72085         0.000000      0.000000     -0.000003
      0.00000      3.80248      7.72085        -0.000000      0.000000     -0.000003
      3.80248      3.80248      7.73278         0.000000      0.000000     -0.000004
      0.00000      0.00000      4.29164         0.000000      0.000000      0.000002
      3.80248      0.00000      4.28067         0.000000      0.000000      0.000003
      0.00000      3.80248      4.28067        -0.000000      0.000000      0.000003
      3.80248      3.80248      4.26874        -0.000000      0.000000      0.000004
      1.89126      1.89126      1.69929        -0.000001     -0.000001     -0.000002
      5.71370      1.89126      1.69929         0.000001     -0.000001     -0.000002
      1.89126      5.71370      1.69929        -0.000001      0.000001     -0.000002
      5.71370      5.71370      1.69929         0.000001      0.000001     -0.000002
      3.80248      0.00000      0.00000         0.000000      0.000000     -0.000000
      0.00000      3.80248      0.00000        -0.000000      0.000000     -0.000000
      3.80248      3.80248      0.00000        -0.000000      0.000000     -0.000000
      1.90488      1.90488      6.00076         0.000003      0.000003     -0.000000
      5.70007      1.90488      6.00076        -0.000003      0.000003     -0.000000
      1.90488      5.70007      6.00076         0.000003     -0.000003     -0.000000
      5.70007      5.70007      6.00076        -0.000003     -0.000003     -0.000000
      0.00000      1.89659      9.00391        -0.000000     -0.000000      0.000001
      3.80248      1.89759      9.02002         0.000000     -0.000000      0.000000
      0.00000      5.70837      9.00391         0.000000      0.000000      0.000001
      3.80248      5.70736      9.02002        -0.000000      0.000000      0.000000
      1.89659      0.00000      9.00391        -0.000000      0.000000      0.000001
      5.70837      0.00000      9.00391         0.000000      0.000000      0.000001
      1.89759      3.80248      9.02002        -0.000000      0.000000      0.000000
      5.70736      3.80248      9.02002         0.000000      0.000000      0.000000
      1.89659      0.00000      2.99761        -0.000000      0.000000     -0.000001
      5.70837      0.00000      2.99761         0.000000      0.000000     -0.000001
      1.89759      3.80248      2.98150        -0.000000      0.000000     -0.000000
      5.70736      3.80248      2.98150         0.000000      0.000000     -0.000000
      0.00000      1.89659      2.99761        -0.000000     -0.000000     -0.000001
      3.80248      1.89759      2.98150         0.000000     -0.000000     -0.000000
      0.00000      5.70837      2.99761         0.000000      0.000000     -0.000001
      3.80248      5.70736      2.98150        -0.000000      0.000000     -0.000000
      0.00000      0.00000      0.00000         0.000000      0.000000     -0.000000
 -----------------------------------------------------------------------------------
    total drift:                                0.000000      0.000000      0.000000


--------------------------------------------------------------------------------------------------------



  FREE ENERGIE OF THE ION-ELECTRON SYSTEM (eV)
  ---------------------------------------------------
  free  energy   TOTEN  =      -207.09906644 eV

  energy  without entropy=     -207.09906644  energy(sigma->0) =     -207.09906644
 
 d Force = 0.3331441E-10[-0.136E-10, 0.803E-10]  d Energy = 0.1331500E-08-0.130E-08
 d Force =-0.1677699E-02[-0.168E-02,-0.168E-02]  d Ewald  =-0.1677699E-02-0.124E-09


--------------------------------------------------------------------------------------------------------


    POTLOK:  cpu time      0.8324: real time      0.8327


--------------------------------------------------------------------------------------------------------


 Conjugate gradient step on ions:
 trial-energy change:   -0.000000  1 .order   -0.000000   -0.000000    0.000000
  (g-gl).g = 0.570E-10      g.g   = 0.126E-09  gl.gl    = 0.139E-09
 g(Force)  = 0.126E-09   g(Stress)= 0.000E+00 ortho     =-0.133E-10
 gamma     =   0.40999
 trial     =   0.66786
 opt step  =   0.57085  (harmonic =   0.57085) maximal distance =0.00000086
 next E    =  -207.099066   (d E  =  -0.00000)


--------------------------------------------------------------------------------------------------------


  
 reached required accuracy - stopping structural energy minimisation
     LOOP+:  cpu time    142.8124: real time    142.8289
    4ORBIT:  cpu time      0.0000: real time      0.0000

 total amount of memory used by VASP MPI-rank0    89622. kBytes
=======================================================================

   base      :      30000. kBytes
   nonl-proj :      15677. kBytes
   fftplans  :      12200. kBytes
   grid      :       7793. kBytes
   one-center:         77. kBytes
   wavefun   :      23875. kBytes
 
  
  
 General timing and accounting informations for this job:
 ========================================================
  
                  Total CPU time used (sec):     4881.847
                            User time (sec):     4863.136
                          System time (sec):       18.711
                         Elapsed time (sec):     4882.989
  
                   Maximum memory used (kb):      199880.
                   Average memory used (kb):          N/A
  
                          Minor page faults:        37403
                          Major page faults:            9
                 Voluntary context switches:          551
