<?xml version="1.0" encoding="ISO-8859-1"?>
<modeling>
 <generator>
  <i name="program" type="string">vasp </i>
  <i name="version" type="string">6.4.3  </i>
  <i name="subversion" type="string">19Mar24 (build Apr 09 2025 20:43:19) complex                          parallel </i>
  <i name="platform" type="string">LinuxIFC </i>
  <i name="date" type="string">2025 04 12 </i>
  <i name="time" type="string">22:57:04 </i>
 </generator>
 <incar>
  <i type="string" name="PREC">Accurate</i>
  <i type="int" name="IALGO">    38</i>
  <i type="logical" name="ADDGRID"> T  </i>
  <i type="int" name="NELMIN">     5</i>
  <i type="int" name="IBRION">     2</i>
  <i name="EDIFF">      0.00000001</i>
  <i name="EDIFFG">     -0.00001000</i>
  <i type="int" name="NSW">   100</i>
  <i type="int" name="ISIF">     2</i>
  <i name="ENCUT">    520.00000000</i>
  <i type="logical" name="LREAL"> F  </i>
  <i type="int" name="ISMEAR">     0</i>
  <i name="SIGMA">      0.05000000</i>
  <i type="logical" name="LWAVE"> F  </i>
  <i type="logical" name="LCHARG"> F  </i>
 </incar>
 <primitive_cell>
  <structure name="primitive_cell" >
   <crystal>
    <varray name="basis" >
     <v>       7.60495428       0.00000000       0.00000000 </v>
     <v>       0.00000000       7.60495428       0.00000000 </v>
     <v>       0.00000000       0.00000000      12.00152075 </v>
    </varray>
    <i name="volume">    694.11190791 </i>
    <varray name="rec_basis" >
     <v>       0.13149323       0.00000000       0.00000000 </v>
     <v>       0.00000000       0.13149323       0.00000000 </v>
     <v>       0.00000000       0.00000000       0.08332277 </v>
    </varray>
   </crystal>
   <varray name="positions" >
    <v>       0.24868682       0.24868682       0.85840810 </v>
    <v>       0.75131318       0.24868682       0.85840810 </v>
    <v>       0.24868682       0.75131318       0.85840810 </v>
    <v>       0.75131318       0.75131318       0.85840810 </v>
    <v>       0.00000000       0.00000000       0.64240460 </v>
    <v>       0.50000000       0.00000000       0.64332050 </v>
    <v>       0.00000000       0.50000000       0.64332050 </v>
    <v>       0.50000000       0.50000000       0.64431545 </v>
    <v>       0.00000000       0.00000000       0.35759540 </v>
    <v>       0.50000000       0.00000000       0.35667950 </v>
    <v>       0.00000000       0.50000000       0.35667950 </v>
    <v>       0.50000000       0.50000000       0.35568455 </v>
    <v>       0.24868682       0.24868682       0.14159190 </v>
    <v>       0.75131318       0.24868682       0.14159190 </v>
    <v>       0.24868682       0.75131318       0.14159190 </v>
    <v>       0.75131318       0.75131318       0.14159190 </v>
    <v>       0.50000000       0.00000000       0.00000000 </v>
    <v>       0.00000000       0.50000000       0.00000000 </v>
    <v>       0.50000000       0.50000000       0.00000000 </v>
    <v>       0.25047395       0.25047395       0.50000000 </v>
    <v>       0.74952605       0.25047395       0.50000000 </v>
    <v>       0.25047395       0.74952605       0.50000000 </v>
    <v>       0.74952605       0.74952605       0.50000000 </v>
    <v>       0.00000000       0.24938805       0.75023031 </v>
    <v>       0.50000000       0.24952012       0.75156820 </v>
    <v>       0.00000000       0.75061195       0.75023031 </v>
    <v>       0.50000000       0.75047988       0.75156820 </v>
    <v>       0.24938805       0.00000000       0.75023031 </v>
    <v>       0.75061195       0.00000000       0.75023031 </v>
    <v>       0.24952012       0.50000000       0.75156820 </v>
    <v>       0.75047988       0.50000000       0.75156820 </v>
    <v>       0.24938805       0.00000000       0.24976969 </v>
    <v>       0.75061195       0.00000000       0.24976969 </v>
    <v>       0.24952012       0.50000000       0.24843180 </v>
    <v>       0.75047988       0.50000000       0.24843180 </v>
    <v>       0.00000000       0.24938805       0.24976969 </v>
    <v>       0.50000000       0.24952012       0.24843180 </v>
    <v>       0.00000000       0.75061195       0.24976969 </v>
    <v>       0.50000000       0.75047988       0.24843180 </v>
    <v>       0.00000000       0.00000000       0.00000000 </v>
   </varray>
  </structure>
  <varray name="primitive_index" >
   <v type="int" >        1 </v>
   <v type="int" >        2 </v>
   <v type="int" >        3 </v>
   <v type="int" >        4 </v>
   <v type="int" >        5 </v>
   <v type="int" >        6 </v>
   <v type="int" >        7 </v>
   <v type="int" >        8 </v>
   <v type="int" >        9 </v>
   <v type="int" >       10 </v>
   <v type="int" >       11 </v>
   <v type="int" >       12 </v>
   <v type="int" >       13 </v>
   <v type="int" >       14 </v>
   <v type="int" >       15 </v>
   <v type="int" >       16 </v>
   <v type="int" >       17 </v>
   <v type="int" >       18 </v>
   <v type="int" >       19 </v>
   <v type="int" >       20 </v>
   <v type="int" >       21 </v>
   <v type="int" >       22 </v>
   <v type="int" >       23 </v>
   <v type="int" >       24 </v>
   <v type="int" >       25 </v>
   <v type="int" >       26 </v>
   <v type="int" >       27 </v>
   <v type="int" >       28 </v>
   <v type="int" >       29 </v>
   <v type="int" >       30 </v>
   <v type="int" >       31 </v>
   <v type="int" >       32 </v>
   <v type="int" >       33 </v>
   <v type="int" >       34 </v>
   <v type="int" >       35 </v>
   <v type="int" >       36 </v>
   <v type="int" >       37 </v>
   <v type="int" >       38 </v>
   <v type="int" >       39 </v>
   <v type="int" >       40 </v>
  </varray>
 </primitive_cell>
 <kpoints>
  <generation param="Gamma">
   <v type="int" name="divisions">       4        4        3 </v>
   <v name="usershift">      0.00000000       0.00000000       0.00000000 </v>
   <v name="genvec1">      0.25000000       0.00000000       0.00000000 </v>
   <v name="genvec2">      0.00000000       0.25000000       0.00000000 </v>
   <v name="genvec3">      0.00000000       0.00000000       0.33333333 </v>
   <v name="shift">      0.00000000       0.00000000       0.00000000 </v>
  </generation>
  <varray name="kpointlist" >
   <v>       0.00000000       0.00000000       0.00000000 </v>
   <v>       0.25000000       0.00000000       0.00000000 </v>
   <v>       0.50000000       0.00000000       0.00000000 </v>
   <v>       0.25000000       0.25000000       0.00000000 </v>
   <v>       0.50000000       0.25000000       0.00000000 </v>
   <v>       0.50000000       0.50000000       0.00000000 </v>
   <v>       0.00000000       0.00000000       0.33333333 </v>
   <v>       0.25000000       0.00000000       0.33333333 </v>
   <v>       0.50000000       0.00000000       0.33333333 </v>
   <v>       0.25000000       0.25000000       0.33333333 </v>
   <v>       0.50000000       0.25000000       0.33333333 </v>
   <v>       0.50000000       0.50000000       0.33333333 </v>
  </varray>
  <varray name="weights" >
   <v>       0.02083333 </v>
   <v>       0.08333333 </v>
   <v>       0.04166667 </v>
   <v>       0.08333333 </v>
   <v>       0.08333333 </v>
   <v>       0.02083333 </v>
   <v>       0.04166667 </v>
   <v>       0.16666667 </v>
   <v>       0.08333333 </v>
   <v>       0.16666667 </v>
   <v>       0.16666667 </v>
   <v>       0.04166667 </v>
  </varray>
 </kpoints>
 <parameters>
  <separator name="general" >
   <i type="string" name="SYSTEM">unknown system</i>
   <i type="logical" name="LCOMPAT"> F  </i>
  </separator>
  <separator name="electronic" >
   <i type="string" name="PREC">accura</i>
   <i name="ENMAX">    520.00000000</i>
   <i name="ENAUG">    605.39200000</i>
   <i name="EDIFF">      0.00000001</i>
   <i type="int" name="IALGO">    38</i>
   <i type="int" name="IWAVPR">    11</i>
   <i type="int" name="NBANDS">   232</i>
   <i type="int" name="NBANDSLOW">    -1</i>
   <i type="int" name="NBANDSHIGH">    -1</i>
   <i name="NELECT">    384.00000000</i>
   <i type="int" name="TURBO">     0</i>
   <i type="int" name="IRESTART">     0</i>
   <i type="int" name="NREBOOT">     0</i>
   <i type="int" name="NMIN">     0</i>
   <i name="EREF">      0.00000000</i>
   <separator name="electronic smearing" >
    <i type="int" name="ISMEAR">     0</i>
    <i name="SIGMA">      0.05000000</i>
    <i name="KSPACING">      0.50000000</i>
    <i type="logical" name="KGAMMA"> T  </i>
    <i type="logical" name="KBLOWUP"> T  </i>
   </separator>
   <separator name="electronic projectors" >
    <i type="logical" name="LREAL"> F  </i>
    <v name="ROPT">      0.00000000      0.00000000      0.00000000      0.00000000</v>
    <i type="int" name="LMAXPAW">  -100</i>
    <i type="int" name="LMAXMIX">     2</i>
    <i type="logical" name="NLSPLINE"> F  </i>
   </separator>
   <separator name="electronic startup" >
    <i type="int" name="ISTART">     0</i>
    <i type="int" name="ICHARG">     2</i>
    <i type="int" name="INIWAV">     1</i>
   </separator>
   <separator name="electronic spin" >
    <i type="int" name="ISPIN">     1</i>
    <i type="logical" name="LNONCOLLINEAR"> F  </i>
    <v name="MAGMOM">      1.00000000      1.00000000      1.00000000      1.00000000      1.00000000      1.00000000      1.00000000      1.00000000      1.00000000      1.00000000      1.00000000      1.00000000      1.00000000      1.00000000      1.00000000      1.00000000      1.00000000      1.00000000      1.00000000      1.00000000
      1.00000000      1.00000000      1.00000000      1.00000000      1.00000000      1.00000000      1.00000000      1.00000000      1.00000000      1.00000000      1.00000000      1.00000000      1.00000000      1.00000000      1.00000000      1.00000000      1.00000000      1.00000000      1.00000000      1.00000000
</v>
    <i name="NUPDOWN">     -1.00000000</i>
    <i type="logical" name="LSORBIT"> F  </i>
    <v name="SAXIS">      0.00000000      0.00000000      1.00000000</v>
    <i type="logical" name="LSPIRAL"> F  </i>
    <v name="QSPIRAL">      0.00000000      0.00000000      0.00000000</v>
    <i type="logical" name="LZEROZ"> F  </i>
   </separator>
   <separator name="electronic exchange-correlation" >
    <i type="logical" name="LASPH"> F  </i>
   </separator>
   <separator name="electronic convergence" >
    <i type="int" name="NELM">    60</i>
    <i type="int" name="NELMDL">    -5</i>
    <i type="int" name="NELMIN">     5</i>
    <i name="ENINI">    520.00000000</i>
    <separator name="electronic convergence detail" >
     <i type="logical" name="LDIAG"> T  </i>
     <i type="logical" name="LSUBROT"> F  </i>
     <i name="WEIMIN">      0.00100000</i>
     <i name="EBREAK">      0.00000000</i>
     <i name="DEPER">      0.30000000</i>
     <i type="int" name="NRMM">     4</i>
     <i name="TIME">      0.40000000</i>
    </separator>
   </separator>
   <separator name="electronic mixer" >
    <i name="AMIX">      0.40000000</i>
    <i name="BMIX">      1.00000000</i>
    <i name="AMIN">      0.10000000</i>
    <i name="AMIX_MAG">      1.60000000</i>
    <i name="BMIX_MAG">      1.00000000</i>
    <separator name="electronic mixer details" >
     <i type="int" name="IMIX">     4</i>
     <i type="logical" name="MIXFIRST"> F  </i>
     <i type="int" name="MAXMIX">   -45</i>
     <i name="WC">    100.00000000</i>
     <i type="int" name="INIMIX">     1</i>
     <i type="int" name="MIXPRE">     1</i>
     <i type="int" name="MREMOVE">     5</i>
    </separator>
   </separator>
   <separator name="electronic dipolcorrection" >
    <i type="logical" name="LDIPOL"> F  </i>
    <i type="logical" name="LMONO"> F  </i>
    <i type="int" name="IDIPOL">     0</i>
    <i name="EPSILON">      1.00000000</i>
    <v name="DIPOL">   -100.00000000   -100.00000000   -100.00000000</v>
    <i name="EFIELD">      0.00000000</i>
    <i type="logical" name="LVACPOTAV"> F  </i>
   </separator>
  </separator>
  <separator name="grids" >
   <i type="int" name="NGX">    60</i>
   <i type="int" name="NGY">    60</i>
   <i type="int" name="NGZ">    90</i>
   <i type="int" name="NGXF">   120</i>
   <i type="int" name="NGYF">   120</i>
   <i type="int" name="NGZF">   180</i>
   <i type="logical" name="ADDGRID"> T  </i>
  </separator>
  <separator name="ionic" >
   <i type="int" name="NSW">   100</i>
   <i type="int" name="IBRION">     2</i>
   <i type="int" name="MDALGO">     0</i>
   <i type="int" name="ISIF">     2</i>
   <i name="PSTRESS">      0.00000000</i>
   <i name="EDIFFG">     -0.00001000</i>
   <i type="int" name="NFREE">     1</i>
   <i name="POTIM">      0.50000000</i>
   <i name="SMASS">     -3.00000000</i>
   <i name="SCALEE">      1.00000000</i>
  </separator>
  <separator name="ionic md" >
   <i name="TEBEG">      0.00010000</i>
   <i name="TEEND">      0.00010000</i>
   <i type="int" name="NBLOCK">     1</i>
   <i type="int" name="KBLOCK">   100</i>
   <i type="int" name="NPACO">   256</i>
   <i name="APACO">     10.00000000</i>
  </separator>
  <separator name="symmetry" >
   <i type="int" name="ISYM">     2</i>
   <i name="SYMPREC">      0.00001000</i>
  </separator>
  <separator name="dos" >
   <i type="int" name="LORBIT">     0</i>
   <v name="RWIGS">     -1.00000000     -1.00000000     -1.00000000     -1.00000000</v>
   <i type="int" name="NEDOS">   301</i>
   <i name="EMIN">     10.00000000</i>
   <i name="EMAX">    -10.00000000</i>
   <i name="EFERMI">      0.00000000</i>
  </separator>
  <separator name="writing" >
   <i type="int" name="NWRITE">     2</i>
   <i type="logical" name="LWAVE"> F  </i>
   <i type="logical" name="LDOWNSAMPLE"> F  </i>
   <i type="logical" name="LCHARG"> F  </i>
   <i type="logical" name="LPARD"> F  </i>
   <i type="logical" name="LVTOT"> F  </i>
   <i type="logical" name="LVHAR"> F  </i>
   <i type="logical" name="LELF"> F  </i>
   <i type="logical" name="LOPTICS"> F  </i>
   <v name="STM">      0.00000000      0.00000000      0.00000000      0.00000000      0.00000000      0.00000000      0.00000000</v>
  </separator>
  <separator name="performance" >
   <i type="int" name="NPAR">     4</i>
   <i type="int" name="NSIM">     4</i>
   <i type="int" name="NBLK">    -1</i>
   <i type="logical" name="LPLANE"> T  </i>
   <i type="logical" name="LSCALAPACK"> T  </i>
   <i type="logical" name="LSCAAWARE"> F  </i>
   <i type="logical" name="LSCALU"> F  </i>
   <i type="logical" name="LASYNC"> F  </i>
   <i type="logical" name="LORBITALREAL"> F  </i>
  </separator>
  <separator name="miscellaneous" >
   <i type="int" name="IDIOT">     3</i>
   <i type="int" name="PHON_NSTRUCT">    -1</i>
   <i type="logical" name="LMUSIC"> F  </i>
   <v name="POMASS">    208.98000000     78.96000000     16.00000000     32.06600000</v>
   <v name="DARWINR">      0.00000000      0.00000000      0.00000000      0.00000000</v>
   <v name="DARWINV">      1.00000000      1.00000000      1.00000000      1.00000000</v>
   <i type="logical" name="LCORR"> T  </i>
  </separator>
  <i type="logical" name="GGA_COMPAT"> T  </i>
  <i type="logical" name="LBERRY"> F  </i>
  <i type="int" name="ICORELEVEL">     0</i>
  <i type="logical" name="LDAU"> F  </i>
  <i type="int" name="I_CONSTRAINED_M">     0</i>
  <separator name="electronic exchange-correlation" >
   <i type="string" name="GGA    ">PE</i>
   <i type="string" name="XC_C">1</i>
   <i type="int" name="VOSKOWN">     0</i>
   <i type="logical" name="LHFCALC"> F  </i>
   <i type="string" name="PRECFOCK"></i>
   <i type="logical" name="LSYMGRAD"> F  </i>
   <i type="logical" name="LHFONE"> F  </i>
   <i type="logical" name="LRHFCALC"> F  </i>
   <i type="logical" name="LTHOMAS"> F  </i>
   <i type="logical" name="LMODELHF"> F  </i>
   <i type="logical" name="LFOCKACE"> F  </i>
   <i name="ENCUT4O">     -1.00000000</i>
   <i type="int" name="EXXOEP">     0</i>
   <i type="int" name="FOURORBIT">     0</i>
   <i name="AEXX">      0.00000000</i>
   <i name="HFALPHA">      0.00000000</i>
   <i name="MCALPHA">      0.00000000</i>
   <i name="ALDAX">      1.00000000</i>
   <i name="AGGAX">      1.00000000</i>
   <i name="AMGGAX">      1.00000000</i>
   <i name="ALDAC">      1.00000000</i>
   <i name="AGGAC">      1.00000000</i>
   <i name="AMGGAC">      1.00000000</i>
   <i type="int" name="NKREDX">     1</i>
   <i type="int" name="NKREDY">     1</i>
   <i type="int" name="NKREDZ">     1</i>
   <i type="logical" name="SHIFTRED"> F  </i>
   <i type="logical" name="ODDONLY"> F  </i>
   <i type="logical" name="EVENONLY"> F  </i>
   <i type="int" name="LMAXFOCK">     0</i>
   <i type="int" name="NMAXFOCKAE">     0</i>
   <i type="logical" name="LFOCKAEDFT"> F  </i>
   <i name="HFSCREEN">      0.00000000</i>
   <i name="HFSCREENC">      0.00000000</i>
   <i type="int" name="NBANDSGWLOW">     0</i>
  </separator>
  <separator name="vdW DFT" >
   <i type="logical" name="LUSE_VDW"> F  </i>
   <i type="int" name="IVDW_NL">    -1</i>
   <i type="logical" name="LSPIN_VDW"> F  </i>
   <i name="ZAB_VDW">     -0.84910000</i>
   <i name="GAMMA_VDW">      1.39626340</i>
   <i name="ALPHA_VDW">      0.00000000</i>
   <i name="PARAM1">      0.12340000</i>
   <i name="PARAM2">      1.00000000</i>
   <i name="BPARAM">      6.30000000</i>
   <i name="CPARAM">      0.00930000</i>
  </separator>
  <separator name="model GW" >
   <i type="int" name="MODEL_GW">     0</i>
   <i name="MODEL_EPS0">     10.41167862</i>
   <i name="MODEL_ALPHA">      1.00000000</i>
  </separator>
  <separator name="linear response parameters" >
   <i type="logical" name="LEPSILON"> F  </i>
   <i type="logical" name="LRPA"> F  </i>
   <i type="logical" name="LNABLA"> F  </i>
   <i type="logical" name="LVEL"> F  </i>
   <i name="CSHIFT">      0.10000000</i>
   <i name="OMEGAMAX">     -1.00000000</i>
   <i name="DEG_THRESHOLD">      0.00200000</i>
   <i name="RTIME">     -0.10000000</i>
   <i name="WPLASMAI">      0.00000000</i>
   <v name="DFIELD">      0.00000000      0.00000000      0.00000000</v>
   <v name="WPLASMA">      0.00000000      0.00000000      0.00000000      0.00000000      0.00000000      0.00000000      0.00000000      0.00000000      0.00000000</v>
  </separator>
  <separator name="orbital magnetization" >
   <i type="logical" name="NUCIND"> F  </i>
   <v name="MAGPOS">      0.00000000      0.00000000      0.00000000</v>
   <i type="logical" name="LNICSALL"> T  </i>
   <i type="logical" name="ORBITALMAG"> F  </i>
   <i type="logical" name="LMAGBLOCH"> F  </i>
   <i type="logical" name="LCHIMAG"> F  </i>
   <i type="logical" name="LGAUGE"> T  </i>
   <i type="int" name="MAGATOM">     0</i>
   <v name="MAGDIPOL">      0.00000000      0.00000000      0.00000000</v>
   <v name="AVECCONST">      0.00000000      0.00000000      0.00000000</v>
  </separator>
  <separator name="response functions" >
   <i type="logical" name="LALL_IN_ONE"> F  </i>
   <i type="int" name="IALL_IN_ONE">    -1</i>
   <i type="int" name="NBANDS_WAVE">    -1</i>
   <i type="logical" name="LFINITE_TEMPERATURE"> F  </i>
   <i type="logical" name="LADDER"> F  </i>
   <i type="logical" name="LRPAFORCE"> F  </i>
   <i type="logical" name="LFXC"> F  </i>
   <i type="logical" name="LHARTREE"> T  </i>
   <i type="int" name="IBSE">     0</i>
   <v type="int" name="KPOINT">    -1     0     0     0</v>
   <i type="logical" name="LTCTC"> F  </i>
   <i type="logical" name="LTCTE"> F  </i>
   <i type="logical" name="LTETE"> F  </i>
   <i type="logical" name="LTRIPLET"> F  </i>
   <i type="logical" name="LFXCEPS"> F  </i>
   <i type="logical" name="LFXHEG"> F  </i>
   <i type="int" name="NATURALO">     2</i>
   <i type="logical" name="LHOLEGF"> F  </i>
   <i type="logical" name="L2ORDER"> F  </i>
   <i type="logical" name="LDMP1"> F  </i>
   <i type="logical" name="LMP2LT"> F  </i>
   <i type="logical" name="LSMP2LT"> F  </i>
   <i type="logical" name="LGWLF"> F  </i>
   <i name="ENCUTGW">     -1.60000002</i>
   <i name="ENCUTGWSOFT">     -1.60000002</i>
   <i name="ENCUTLF">     -1.00000000</i>
   <i type="logical" name="ESF_SPLINES"> F  </i>
   <i name="ESF_CONV">      0.01000000</i>
   <i type="int" name="ESF_NINTER">    15</i>
   <i type="int" name="LMAXMP2">    -1</i>
   <i name="SCISSOR">      0.00000000</i>
   <i type="int" name="NOMEGA">     0</i>
   <i type="int" name="NOMEGAR">     0</i>
   <i type="int" name="NBANDSGW">    -1</i>
   <i type="int" name="NBANDSO">    -1</i>
   <i type="int" name="NBANDSV">    -1</i>
   <i type="int" name="NELMGW">     1</i>
   <i type="int" name="NELMHF">     1</i>
   <i type="int" name="DIM">     3</i>
   <i type="int" name="IESPILON">     4</i>
   <i type="int" name="ANTIRES">     0</i>
   <i name="OMEGAMAX">    -30.00000000</i>
   <i name="OMEGAMIN">    -30.00000000</i>
   <i name="OMEGATL">   -200.00000000</i>
   <i type="int" name="OMEGAGRID">     0</i>
   <i name="CSHIFT">     -0.10000000</i>
   <i type="logical" name="LSELFENERGY"> F  </i>
   <i type="logical" name="LSPECTRAL"> F  </i>
   <i type="logical" name="LSPECTRALGW"> F  </i>
   <i type="logical" name="LSINGLES"> F  </i>
   <i type="logical" name="LFERMIGW"> F  </i>
   <i type="logical" name="ODDONLYGW"> F  </i>
   <i type="logical" name="EVENONLYGW"> F  </i>
   <i type="int" name="NKREDLFX">     1</i>
   <i type="int" name="NKREDLFY">     1</i>
   <i type="int" name="NKREDLFZ">     1</i>
   <i type="int" name="MAXMEM">  2800</i>
   <i type="int" name="TELESCOPE">     0</i>
   <i type="int" name="NTAUPAR">    -1</i>
   <i type="int" name="NOMEGAPAR">    -1</i>
   <i name="DAMP_NEWTON">      0.80000001</i>
   <i name="LAMBDA">      1.00000000</i>
  </separator>
  <separator name="External order field" >
   <i name="OFIELD_KAPPA">      0.00000000</i>
   <v name="OFIELD_K">      0.00000000      0.00000000      0.00000000</v>
   <i name="OFIELD_Q6_NEAR">      0.00000000</i>
   <i name="OFIELD_Q6_FAR">      0.00000000</i>
   <i name="OFIELD_A">      0.00000000</i>
  </separator>
  <separator name="optional k-points parameters" >
   <i type="int" name="KPOINTS_OPT_MODE">     1</i>
   <i type="logical" name="LKPOINTS_OPT"> F  </i>
  </separator>
 </parameters>
 <atominfo>
  <atoms>      40 </atoms>
  <types>       4 </types>
  <array name="atoms" >
   <dimension dim="1">ion</dimension>
   <field type="string">element</field>
   <field type="int">atomtype</field>
   <set>
    <rc><c>Bi</c><c>   1</c></rc>
    <rc><c>Bi</c><c>   1</c></rc>
    <rc><c>Bi</c><c>   1</c></rc>
    <rc><c>Bi</c><c>   1</c></rc>
    <rc><c>Bi</c><c>   1</c></rc>
    <rc><c>Bi</c><c>   1</c></rc>
    <rc><c>Bi</c><c>   1</c></rc>
    <rc><c>Bi</c><c>   1</c></rc>
    <rc><c>Bi</c><c>   1</c></rc>
    <rc><c>Bi</c><c>   1</c></rc>
    <rc><c>Bi</c><c>   1</c></rc>
    <rc><c>Bi</c><c>   1</c></rc>
    <rc><c>Bi</c><c>   1</c></rc>
    <rc><c>Bi</c><c>   1</c></rc>
    <rc><c>Bi</c><c>   1</c></rc>
    <rc><c>Bi</c><c>   1</c></rc>
    <rc><c>Se</c><c>   2</c></rc>
    <rc><c>Se</c><c>   2</c></rc>
    <rc><c>Se</c><c>   2</c></rc>
    <rc><c>Se</c><c>   2</c></rc>
    <rc><c>Se</c><c>   2</c></rc>
    <rc><c>Se</c><c>   2</c></rc>
    <rc><c>Se</c><c>   2</c></rc>
    <rc><c>O </c><c>   3</c></rc>
    <rc><c>O </c><c>   3</c></rc>
    <rc><c>O </c><c>   3</c></rc>
    <rc><c>O </c><c>   3</c></rc>
    <rc><c>O </c><c>   3</c></rc>
    <rc><c>O </c><c>   3</c></rc>
    <rc><c>O </c><c>   3</c></rc>
    <rc><c>O </c><c>   3</c></rc>
    <rc><c>O </c><c>   3</c></rc>
    <rc><c>O </c><c>   3</c></rc>
    <rc><c>O </c><c>   3</c></rc>
    <rc><c>O </c><c>   3</c></rc>
    <rc><c>O </c><c>   3</c></rc>
    <rc><c>O </c><c>   3</c></rc>
    <rc><c>O </c><c>   3</c></rc>
    <rc><c>O </c><c>   3</c></rc>
    <rc><c>S </c><c>   4</c></rc>
   </set>
  </array>
  <array name="atomtypes" >
   <dimension dim="1">type</dimension>
   <field type="int">atomspertype</field>
   <field type="string">element</field>
   <field>mass</field>
   <field>valence</field>
   <field type="string">pseudopotential</field>
   <set>
    <rc><c>  16</c><c>Bi</c><c>    208.98000000</c><c>     15.00000000</c><c>  PAW_PBE Bi_d 06Sep2000                </c></rc>
    <rc><c>   7</c><c>Se</c><c>     78.96000000</c><c>      6.00000000</c><c>  PAW_PBE Se 06Sep2000                  </c></rc>
    <rc><c>  16</c><c>O </c><c>     16.00000000</c><c>      6.00000000</c><c>  PAW_PBE O 08Apr2002                   </c></rc>
    <rc><c>   1</c><c>S </c><c>     32.06600000</c><c>      6.00000000</c><c>  PAW_PBE S 06Sep2000                   </c></rc>
   </set>
  </array>
 </atominfo>
 <structure name="initialpos" >
  <crystal>
   <varray name="basis" >
    <v>       7.60495428       0.00000000       0.00000000 </v>
    <v>       0.00000000       7.60495428       0.00000000 </v>
    <v>       0.00000000       0.00000000      12.00152075 </v>
   </varray>
   <i name="volume">    694.11190791 </i>
   <varray name="rec_basis" >
    <v>       0.13149323       0.00000000       0.00000000 </v>
    <v>       0.00000000       0.13149323       0.00000000 </v>
    <v>       0.00000000       0.00000000       0.08332277 </v>
   </varray>
  </crystal>
  <varray name="positions" >
   <v>       0.24868682       0.24868682       0.85840810 </v>
   <v>       0.75131318       0.24868682       0.85840810 </v>
   <v>       0.24868682       0.75131318       0.85840810 </v>
   <v>       0.75131318       0.75131318       0.85840810 </v>
   <v>       0.00000000       0.00000000       0.64240460 </v>
   <v>       0.50000000       0.00000000       0.64332050 </v>
   <v>       0.00000000       0.50000000       0.64332050 </v>
   <v>       0.50000000       0.50000000       0.64431545 </v>
   <v>       0.00000000       0.00000000       0.35759540 </v>
   <v>       0.50000000       0.00000000       0.35667950 </v>
   <v>       0.00000000       0.50000000       0.35667950 </v>
   <v>       0.50000000       0.50000000       0.35568455 </v>
   <v>       0.24868682       0.24868682       0.14159190 </v>
   <v>       0.75131318       0.24868682       0.14159190 </v>
   <v>       0.24868682       0.75131318       0.14159190 </v>
   <v>       0.75131318       0.75131318       0.14159190 </v>
   <v>       0.50000000       0.00000000       0.00000000 </v>
   <v>       0.00000000       0.50000000       0.00000000 </v>
   <v>       0.50000000       0.50000000       0.00000000 </v>
   <v>       0.25047395       0.25047395       0.50000000 </v>
   <v>       0.74952605       0.25047395       0.50000000 </v>
   <v>       0.25047395       0.74952605       0.50000000 </v>
   <v>       0.74952605       0.74952605       0.50000000 </v>
   <v>       0.00000000       0.24938805       0.75023031 </v>
   <v>       0.50000000       0.24952012       0.75156820 </v>
   <v>       0.00000000       0.75061195       0.75023031 </v>
   <v>       0.50000000       0.75047988       0.75156820 </v>
   <v>       0.24938805       0.00000000       0.75023031 </v>
   <v>       0.75061195       0.00000000       0.75023031 </v>
   <v>       0.24952012       0.50000000       0.75156820 </v>
   <v>       0.75047988       0.50000000       0.75156820 </v>
   <v>       0.24938805       0.00000000       0.24976969 </v>
   <v>       0.75061195       0.00000000       0.24976969 </v>
   <v>       0.24952012       0.50000000       0.24843180 </v>
   <v>       0.75047988       0.50000000       0.24843180 </v>
   <v>       0.00000000       0.24938805       0.24976969 </v>
   <v>       0.50000000       0.24952012       0.24843180 </v>
   <v>       0.00000000       0.75061195       0.24976969 </v>
   <v>       0.50000000       0.75047988       0.24843180 </v>
   <v>       0.00000000       0.00000000       0.00000000 </v>
  </varray>
 </structure>
 <calculation>
  <scstep>
   <time name="dav">   29.50   29.52</time>
   <time name="total">   30.34   30.36</time>
   <energy>
    <i name="alphaZ">   1455.32177217 </i>
    <i name="ewald"> -30728.61046270 </i>
    <i name="hartreedc"> -10618.25325038 </i>
    <i name="XCdc">   1243.09503054 </i>
    <i name="pawpsdc">  34040.00696010 </i>
    <i name="pawaedc"> -33495.80632930 </i>
    <i name="eentropy">     -0.00851986 </i>
    <i name="bandstr">   3631.99012903 </i>
    <i name="atom">  40341.65184589 </i>
    <i name="e_fr_energy">   5869.38717551 </i>
    <i name="e_wo_entrp">   5869.39569537 </i>
    <i name="e_0_energy">   5869.39143544 </i>
   </energy>
  </scstep>
  <scstep>
   <time name="dav">   29.52   29.54</time>
   <time name="total">   29.52   29.54</time>
   <energy>
    <i name="e_fr_energy">   1045.08528556 </i>
    <i name="e_wo_entrp">   1045.08975894 </i>
    <i name="e_0_energy">   1045.08752225 </i>
   </energy>
  </scstep>
  <scstep>
   <time name="dav">   31.87   31.89</time>
   <time name="total">   31.87   31.89</time>
   <energy>
    <i name="e_fr_energy">    -98.08435855 </i>
    <i name="e_wo_entrp">    -98.08435855 </i>
    <i name="e_0_energy">    -98.08435855 </i>
   </energy>
  </scstep>
  <scstep>
   <time name="dav">   33.85   33.85</time>
   <time name="total">   33.85   33.85</time>
   <energy>
    <i name="e_fr_energy">   -234.60184133 </i>
    <i name="e_wo_entrp">   -234.60184133 </i>
    <i name="e_0_energy">   -234.60184133 </i>
   </energy>
  </scstep>
  <scstep>
   <time name="dav">   33.16   33.16</time>
   <time name="total">   34.47   34.47</time>
   <energy>
    <i name="e_fr_energy">   -240.40529165 </i>
    <i name="e_wo_entrp">   -240.40529165 </i>
    <i name="e_0_energy">   -240.40529165 </i>
   </energy>
  </scstep>
  <scstep>
   <time name="dav">   38.06   38.07</time>
   <time name="total">   40.20   40.22</time>
   <energy>
    <i name="e_fr_energy">   -206.62903394 </i>
    <i name="e_wo_entrp">   -206.62903394 </i>
    <i name="e_0_energy">   -206.62903394 </i>
   </energy>
  </scstep>
  <scstep>
   <time name="dav">   31.38   31.38</time>
   <time name="total">   33.53   33.53</time>
   <energy>
    <i name="e_fr_energy">   -207.08896217 </i>
    <i name="e_wo_entrp">   -207.08896217 </i>
    <i name="e_0_energy">   -207.08896217 </i>
   </energy>
  </scstep>
  <scstep>
   <time name="dav">   38.94   38.96</time>
   <time name="total">   41.09   41.11</time>
   <energy>
    <i name="e_fr_energy">   -207.19624605 </i>
    <i name="e_wo_entrp">   -207.19624605 </i>
    <i name="e_0_energy">   -207.19624605 </i>
   </energy>
  </scstep>
  <scstep>
   <time name="dav">   36.43   36.45</time>
   <time name="total">   38.57   38.60</time>
   <energy>
    <i name="e_fr_energy">   -207.10136462 </i>
    <i name="e_wo_entrp">   -207.10136462 </i>
    <i name="e_0_energy">   -207.10136462 </i>
   </energy>
  </scstep>
  <scstep>
   <time name="dav">   34.90   34.90</time>
   <time name="total">   37.04   37.04</time>
   <energy>
    <i name="e_fr_energy">   -207.09694853 </i>
    <i name="e_wo_entrp">   -207.09694853 </i>
    <i name="e_0_energy">   -207.09694853 </i>
   </energy>
  </scstep>
  <scstep>
   <time name="dav">   35.62   35.63</time>
   <time name="total">   37.77   37.77</time>
   <energy>
    <i name="e_fr_energy">   -207.09867587 </i>
    <i name="e_wo_entrp">   -207.09867587 </i>
    <i name="e_0_energy">   -207.09867587 </i>
   </energy>
  </scstep>
  <scstep>
   <time name="dav">   37.51   37.55</time>
   <time name="total">   39.65   39.69</time>
   <energy>
    <i name="e_fr_energy">   -207.09922990 </i>
    <i name="e_wo_entrp">   -207.09922990 </i>
    <i name="e_0_energy">   -207.09922990 </i>
   </energy>
  </scstep>
  <scstep>
   <time name="dav">   33.57   33.60</time>
   <time name="total">   35.72   35.75</time>
   <energy>
    <i name="e_fr_energy">   -207.09908168 </i>
    <i name="e_wo_entrp">   -207.09908168 </i>
    <i name="e_0_energy">   -207.09908168 </i>
   </energy>
  </scstep>
  <scstep>
   <time name="dav">   32.95   32.99</time>
   <time name="total">   35.09   35.13</time>
   <energy>
    <i name="e_fr_energy">   -207.09908193 </i>
    <i name="e_wo_entrp">   -207.09908193 </i>
    <i name="e_0_energy">   -207.09908193 </i>
   </energy>
  </scstep>
  <scstep>
   <time name="dav">   35.88   35.89</time>
   <time name="total">   38.02   38.03</time>
   <energy>
    <i name="e_fr_energy">   -207.09906759 </i>
    <i name="e_wo_entrp">   -207.09906759 </i>
    <i name="e_0_energy">   -207.09906759 </i>
   </energy>
  </scstep>
  <scstep>
   <time name="dav">   33.20   33.20</time>
   <time name="total">   35.34   35.34</time>
   <energy>
    <i name="e_fr_energy">   -207.09906606 </i>
    <i name="e_wo_entrp">   -207.09906606 </i>
    <i name="e_0_energy">   -207.09906606 </i>
   </energy>
  </scstep>
  <scstep>
   <time name="dav">   34.59   34.60</time>
   <time name="total">   36.73   36.74</time>
   <energy>
    <i name="e_fr_energy">   -207.09906601 </i>
    <i name="e_wo_entrp">   -207.09906601 </i>
    <i name="e_0_energy">   -207.09906601 </i>
   </energy>
  </scstep>
  <scstep>
   <time name="dav">   33.35   33.34</time>
   <time name="total">   35.49   35.49</time>
   <energy>
    <i name="e_fr_energy">   -207.09906618 </i>
    <i name="e_wo_entrp">   -207.09906618 </i>
    <i name="e_0_energy">   -207.09906618 </i>
   </energy>
  </scstep>
  <scstep>
   <time name="dav">   32.45   32.45</time>
   <time name="total">   34.59   34.59</time>
   <energy>
    <i name="e_fr_energy">   -207.09906611 </i>
    <i name="e_wo_entrp">   -207.09906611 </i>
    <i name="e_0_energy">   -207.09906611 </i>
   </energy>
  </scstep>
  <scstep>
   <time name="dav">   28.36   28.37</time>
   <time name="total">   30.52   30.52</time>
   <energy>
    <i name="e_fr_energy">   -207.09906625 </i>
    <i name="e_wo_entrp">   -207.09906625 </i>
    <i name="e_0_energy">   -207.09906625 </i>
   </energy>
  </scstep>
  <scstep>
   <time name="dav">   28.13   28.14</time>
   <time name="total">   30.28   30.29</time>
   <energy>
    <i name="e_fr_energy">   -207.09906637 </i>
    <i name="e_wo_entrp">   -207.09906637 </i>
    <i name="e_0_energy">   -207.09906637 </i>
   </energy>
  </scstep>
  <scstep>
   <time name="dav">   21.29   21.29</time>
   <time name="total">   22.12   22.13</time>
   <energy>
    <i name="alphaZ">   1455.32177217 </i>
    <i name="ewald"> -30728.61046270 </i>
    <i name="hartreedc"> -10797.99902135 </i>
    <i name="XCdc">   1260.80249553 </i>
    <i name="pawpsdc">  37019.46304666 </i>
    <i name="pawaedc"> -36423.63076291 </i>
    <i name="eentropy">     -0.00000000 </i>
    <i name="bandstr">  -2334.09797967 </i>
    <i name="atom">  40341.65184589 </i>
    <i name="e_fr_energy">   -207.09906637 </i>
    <i name="e_wo_entrp">   -207.09906637 </i>
    <i name="e_0_energy">   -207.09906637 </i>
   </energy>
  </scstep>
  <structure>
   <crystal>
    <varray name="basis" >
     <v>       7.60495428       0.00000000       0.00000000 </v>
     <v>       0.00000000       7.60495428       0.00000000 </v>
     <v>       0.00000000       0.00000000      12.00152075 </v>
    </varray>
    <i name="volume">    694.11190791 </i>
    <varray name="rec_basis" >
     <v>       0.13149323       0.00000000       0.00000000 </v>
     <v>       0.00000000       0.13149323       0.00000000 </v>
     <v>       0.00000000       0.00000000       0.08332277 </v>
    </varray>
   </crystal>
   <varray name="positions" >
    <v>       0.24868682       0.24868682       0.85840810 </v>
    <v>       0.75131318       0.24868682       0.85840810 </v>
    <v>       0.24868682       0.75131318       0.85840810 </v>
    <v>       0.75131318       0.75131318       0.85840810 </v>
    <v>       0.00000000       0.00000000       0.64240460 </v>
    <v>       0.50000000       0.00000000       0.64332050 </v>
    <v>       0.00000000       0.50000000       0.64332050 </v>
    <v>       0.50000000       0.50000000       0.64431545 </v>
    <v>       0.00000000       0.00000000       0.35759540 </v>
    <v>       0.50000000       0.00000000       0.35667950 </v>
    <v>       0.00000000       0.50000000       0.35667950 </v>
    <v>       0.50000000       0.50000000       0.35568455 </v>
    <v>       0.24868682       0.24868682       0.14159190 </v>
    <v>       0.75131318       0.24868682       0.14159190 </v>
    <v>       0.24868682       0.75131318       0.14159190 </v>
    <v>       0.75131318       0.75131318       0.14159190 </v>
    <v>       0.50000000       0.00000000       0.00000000 </v>
    <v>       0.00000000       0.50000000       0.00000000 </v>
    <v>       0.50000000       0.50000000       0.00000000 </v>
    <v>       0.25047395       0.25047395       0.50000000 </v>
    <v>       0.74952605       0.25047395       0.50000000 </v>
    <v>       0.25047395       0.74952605       0.50000000 </v>
    <v>       0.74952605       0.74952605       0.50000000 </v>
    <v>       0.00000000       0.24938805       0.75023031 </v>
    <v>       0.50000000       0.24952012       0.75156820 </v>
    <v>       0.00000000       0.75061195       0.75023031 </v>
    <v>       0.50000000       0.75047988       0.75156820 </v>
    <v>       0.24938805       0.00000000       0.75023031 </v>
    <v>       0.75061195       0.00000000       0.75023031 </v>
    <v>       0.24952012       0.50000000       0.75156820 </v>
    <v>       0.75047988       0.50000000       0.75156820 </v>
    <v>       0.24938805       0.00000000       0.24976969 </v>
    <v>       0.75061195       0.00000000       0.24976969 </v>
    <v>       0.24952012       0.50000000       0.24843180 </v>
    <v>       0.75047988       0.50000000       0.24843180 </v>
    <v>       0.00000000       0.24938805       0.24976969 </v>
    <v>       0.50000000       0.24952012       0.24843180 </v>
    <v>       0.00000000       0.75061195       0.24976969 </v>
    <v>       0.50000000       0.75047988       0.24843180 </v>
    <v>       0.00000000       0.00000000       0.00000000 </v>
   </varray>
  </structure>
  <varray name="forces" >
   <v>       0.00010448       0.00010448       0.00005377 </v>
   <v>      -0.00010448       0.00010448       0.00005377 </v>
   <v>       0.00010448      -0.00010448       0.00005377 </v>
   <v>      -0.00010448      -0.00010448       0.00005377 </v>
   <v>      -0.00000000      -0.00000000       0.00032907 </v>
   <v>      -0.00000000      -0.00000000       0.00006428 </v>
   <v>      -0.00000000      -0.00000000       0.00006428 </v>
   <v>      -0.00000000      -0.00000000      -0.00013439 </v>
   <v>      -0.00000000      -0.00000000      -0.00032907 </v>
   <v>      -0.00000000      -0.00000000      -0.00006428 </v>
   <v>      -0.00000000      -0.00000000      -0.00006428 </v>
   <v>      -0.00000000      -0.00000000       0.00013439 </v>
   <v>       0.00010448       0.00010448      -0.00005377 </v>
   <v>      -0.00010448       0.00010448      -0.00005377 </v>
   <v>       0.00010448      -0.00010448      -0.00005377 </v>
   <v>      -0.00010448      -0.00010448      -0.00005377 </v>
   <v>      -0.00000000      -0.00000000      -0.00000000 </v>
   <v>      -0.00000000      -0.00000000      -0.00000000 </v>
   <v>      -0.00000000      -0.00000000      -0.00000000 </v>
   <v>       0.00016036       0.00016036      -0.00000000 </v>
   <v>      -0.00016036       0.00016036      -0.00000000 </v>
   <v>       0.00016036      -0.00016036      -0.00000000 </v>
   <v>      -0.00016036      -0.00016036      -0.00000000 </v>
   <v>      -0.00000000       0.00007167      -0.00003626 </v>
   <v>      -0.00000000       0.00008393       0.00025550 </v>
   <v>      -0.00000000      -0.00007167      -0.00003626 </v>
   <v>      -0.00000000      -0.00008393       0.00025550 </v>
   <v>       0.00007167      -0.00000000      -0.00003626 </v>
   <v>      -0.00007167      -0.00000000      -0.00003626 </v>
   <v>       0.00008393      -0.00000000       0.00025550 </v>
   <v>      -0.00008393      -0.00000000       0.00025550 </v>
   <v>       0.00007167      -0.00000000       0.00003626 </v>
   <v>      -0.00007167      -0.00000000       0.00003626 </v>
   <v>       0.00008393      -0.00000000      -0.00025550 </v>
   <v>      -0.00008393      -0.00000000      -0.00025550 </v>
   <v>      -0.00000000       0.00007167       0.00003626 </v>
   <v>      -0.00000000       0.00008393      -0.00025550 </v>
   <v>      -0.00000000      -0.00007167       0.00003626 </v>
   <v>      -0.00000000      -0.00008393      -0.00025550 </v>
   <v>      -0.00000000      -0.00000000      -0.00000000 </v>
  </varray>
  <varray name="stress" >
   <v>      96.73214317       0.00000000       0.00000000 </v>
   <v>       0.00000000      96.73214317       0.00000000 </v>
   <v>      -0.00000000       0.00000000      75.20660162 </v>
  </varray>
  <energy>
   <i name="e_fr_energy">   -207.09906637 </i>
   <i name="e_wo_entrp">   -207.09906637 </i>
   <i name="e_0_energy">   -207.09906637 </i>
  </energy>
  <time name="totalsc">  793.89  794.17</time>
 </calculation>
 <calculation>
  <scstep>
   <time name="dav">   30.75   30.76</time>
   <time name="total">   32.91   32.91</time>
   <energy>
    <i name="alphaZ">   1455.32177217 </i>
    <i name="ewald"> -30728.60562526 </i>
    <i name="hartreedc"> -10798.00276602 </i>
    <i name="XCdc">   1260.80244258 </i>
    <i name="pawpsdc">  37019.44610202 </i>
    <i name="pawaedc"> -36423.61374312 </i>
    <i name="eentropy">     -0.00000000 </i>
    <i name="bandstr">  -2334.09909462 </i>
    <i name="atom">  40341.65184589 </i>
    <i name="e_fr_energy">   -207.09906634 </i>
    <i name="e_wo_entrp">   -207.09906634 </i>
    <i name="e_0_energy">   -207.09906634 </i>
   </energy>
  </scstep>
  <scstep>
   <time name="dav">   36.56   36.58</time>
   <time name="total">   38.71   38.72</time>
   <energy>
    <i name="e_fr_energy">   -207.09906640 </i>
    <i name="e_wo_entrp">   -207.09906640 </i>
    <i name="e_0_energy">   -207.09906640 </i>
   </energy>
  </scstep>
  <scstep>
   <time name="dav">   21.74   21.74</time>
   <time name="total">   23.88   23.88</time>
   <energy>
    <i name="e_fr_energy">   -207.09906639 </i>
    <i name="e_wo_entrp">   -207.09906639 </i>
    <i name="e_0_energy">   -207.09906639 </i>
   </energy>
  </scstep>
  <scstep>
   <time name="dav">   21.19   21.20</time>
   <time name="total">   23.34   23.35</time>
   <energy>
    <i name="e_fr_energy">   -207.09906639 </i>
    <i name="e_wo_entrp">   -207.09906639 </i>
    <i name="e_0_energy">   -207.09906639 </i>
   </energy>
  </scstep>
  <scstep>
   <time name="dav">   21.12   21.12</time>
   <time name="total">   21.95   21.96</time>
   <energy>
    <i name="alphaZ">   1455.32177217 </i>
    <i name="ewald"> -30728.60562526 </i>
    <i name="hartreedc"> -10798.00244229 </i>
    <i name="XCdc">   1260.80242659 </i>
    <i name="pawpsdc">  37019.43910024 </i>
    <i name="pawaedc"> -36423.60677007 </i>
    <i name="eentropy">     -0.00000000 </i>
    <i name="bandstr">  -2334.09937368 </i>
    <i name="atom">  40341.65184589 </i>
    <i name="e_fr_energy">   -207.09906638 </i>
    <i name="e_wo_entrp">   -207.09906638 </i>
    <i name="e_0_energy">   -207.09906638 </i>
   </energy>
  </scstep>
  <structure>
   <crystal>
    <varray name="basis" >
     <v>       7.60495428       0.00000000       0.00000000 </v>
     <v>       0.00000000       7.60495428       0.00000000 </v>
     <v>       0.00000000       0.00000000      12.00152075 </v>
    </varray>
    <i name="volume">    694.11190791 </i>
    <varray name="rec_basis" >
     <v>       0.13149323       0.00000000       0.00000000 </v>
     <v>       0.00000000       0.13149323       0.00000000 </v>
     <v>       0.00000000       0.00000000       0.08332277 </v>
    </varray>
   </crystal>
   <varray name="positions" >
    <v>       0.24868749       0.24868749       0.85840832 </v>
    <v>       0.75131251       0.24868749       0.85840832 </v>
    <v>       0.24868749       0.75131251       0.85840832 </v>
    <v>       0.75131251       0.75131251       0.85840832 </v>
    <v>       1.00000000       1.00000000       0.64240592 </v>
    <v>       0.50000000       1.00000000       0.64332076 </v>
    <v>       1.00000000       0.50000000       0.64332076 </v>
    <v>       0.50000000       0.50000000       0.64431491 </v>
    <v>       1.00000000       1.00000000       0.35759408 </v>
    <v>       0.50000000       1.00000000       0.35667924 </v>
    <v>       1.00000000       0.50000000       0.35667924 </v>
    <v>       0.50000000       0.50000000       0.35568509 </v>
    <v>       0.24868749       0.24868749       0.14159168 </v>
    <v>       0.75131251       0.24868749       0.14159168 </v>
    <v>       0.24868749       0.75131251       0.14159168 </v>
    <v>       0.75131251       0.75131251       0.14159168 </v>
    <v>       0.50000000       1.00000000       1.00000000 </v>
    <v>       1.00000000       0.50000000       1.00000000 </v>
    <v>       0.50000000       0.50000000       1.00000000 </v>
    <v>       0.25047497       0.25047497       0.50000000 </v>
    <v>       0.74952503       0.25047497       0.50000000 </v>
    <v>       0.25047497       0.74952503       0.50000000 </v>
    <v>       0.74952503       0.74952503       0.50000000 </v>
    <v>       1.00000000       0.24938851       0.75023016 </v>
    <v>       0.50000000       0.24952065       0.75156923 </v>
    <v>       1.00000000       0.75061149       0.75023016 </v>
    <v>       0.50000000       0.75047935       0.75156923 </v>
    <v>       0.24938851       1.00000000       0.75023016 </v>
    <v>       0.75061149       1.00000000       0.75023016 </v>
    <v>       0.24952065       0.50000000       0.75156923 </v>
    <v>       0.75047935       0.50000000       0.75156923 </v>
    <v>       0.24938851       1.00000000       0.24976984 </v>
    <v>       0.75061149       1.00000000       0.24976984 </v>
    <v>       0.24952065       0.50000000       0.24843077 </v>
    <v>       0.75047935       0.50000000       0.24843077 </v>
    <v>       1.00000000       0.24938851       0.24976984 </v>
    <v>       0.50000000       0.24952065       0.24843077 </v>
    <v>       1.00000000       0.75061149       0.24976984 </v>
    <v>       0.50000000       0.75047935       0.24843077 </v>
    <v>       1.00000000       1.00000000       1.00000000 </v>
   </varray>
  </structure>
  <varray name="forces" >
   <v>       0.00001751       0.00001751       0.00006222 </v>
   <v>      -0.00001751       0.00001751       0.00006222 </v>
   <v>       0.00001751      -0.00001751       0.00006222 </v>
   <v>      -0.00001751      -0.00001751       0.00006222 </v>
   <v>      -0.00000000       0.00000000       0.00012567 </v>
   <v>      -0.00000000       0.00000000       0.00006296 </v>
   <v>       0.00000000       0.00000000       0.00006296 </v>
   <v>      -0.00000000       0.00000000      -0.00000254 </v>
   <v>       0.00000000       0.00000000      -0.00012567 </v>
   <v>       0.00000000       0.00000000      -0.00006296 </v>
   <v>      -0.00000000       0.00000000      -0.00006296 </v>
   <v>      -0.00000000       0.00000000       0.00000254 </v>
   <v>       0.00001751       0.00001751      -0.00006222 </v>
   <v>      -0.00001751       0.00001751      -0.00006222 </v>
   <v>       0.00001751      -0.00001751      -0.00006222 </v>
   <v>      -0.00001751      -0.00001751      -0.00006222 </v>
   <v>      -0.00000000       0.00000000       0.00000000 </v>
   <v>      -0.00000000       0.00000000       0.00000000 </v>
   <v>       0.00000000       0.00000000       0.00000000 </v>
   <v>       0.00014045       0.00014045       0.00000000 </v>
   <v>      -0.00014045       0.00014045       0.00000000 </v>
   <v>       0.00014045      -0.00014045       0.00000000 </v>
   <v>      -0.00014045      -0.00014045       0.00000000 </v>
   <v>       0.00000000       0.00004554      -0.00000224 </v>
   <v>      -0.00000000       0.00004401       0.00016884 </v>
   <v>      -0.00000000      -0.00004554      -0.00000224 </v>
   <v>       0.00000000      -0.00004401       0.00016884 </v>
   <v>       0.00004554       0.00000000      -0.00000224 </v>
   <v>      -0.00004554       0.00000000      -0.00000224 </v>
   <v>       0.00004401       0.00000000       0.00016884 </v>
   <v>      -0.00004401       0.00000000       0.00016884 </v>
   <v>       0.00004554       0.00000000       0.00000224 </v>
   <v>      -0.00004554       0.00000000       0.00000224 </v>
   <v>       0.00004401       0.00000000      -0.00016884 </v>
   <v>      -0.00004401       0.00000000      -0.00016884 </v>
   <v>       0.00000000       0.00004554       0.00000224 </v>
   <v>      -0.00000000       0.00004401      -0.00016884 </v>
   <v>       0.00000000      -0.00004554       0.00000224 </v>
   <v>       0.00000000      -0.00004401      -0.00016884 </v>
   <v>       0.00000000       0.00000000       0.00000000 </v>
  </varray>
  <varray name="stress" >
   <v>      96.73541755       0.00000000       0.00000000 </v>
   <v>       0.00000000      96.73541755       0.00000000 </v>
   <v>      -0.00000000       0.00000000      75.21114275 </v>
  </varray>
  <energy>
   <i name="e_fr_energy">   -207.09906638 </i>
   <i name="e_wo_entrp">   -207.09906638 </i>
   <i name="e_0_energy">   -207.09906638 </i>
  </energy>
  <time name="totalsc">  173.13  173.17</time>
 </calculation>
 <calculation>
  <scstep>
   <time name="dav">   30.33   30.34</time>
   <time name="total">   32.48   32.49</time>
   <energy>
    <i name="alphaZ">   1455.32177217 </i>
    <i name="ewald"> -30728.59931887 </i>
    <i name="hartreedc"> -10798.00845718 </i>
    <i name="XCdc">   1260.80244322 </i>
    <i name="pawpsdc">  37019.43872884 </i>
    <i name="pawaedc"> -36423.60640105 </i>
    <i name="eentropy">     -0.00000000 </i>
    <i name="bandstr">  -2334.09967937 </i>
    <i name="atom">  40341.65184589 </i>
    <i name="e_fr_energy">   -207.09906633 </i>
    <i name="e_wo_entrp">   -207.09906633 </i>
    <i name="e_0_energy">   -207.09906633 </i>
   </energy>
  </scstep>
  <scstep>
   <time name="dav">   36.68   36.68</time>
   <time name="total">   38.82   38.82</time>
   <energy>
    <i name="e_fr_energy">   -207.09906642 </i>
    <i name="e_wo_entrp">   -207.09906642 </i>
    <i name="e_0_energy">   -207.09906642 </i>
   </energy>
  </scstep>
  <scstep>
   <time name="dav">   23.46   23.46</time>
   <time name="total">   25.60   25.60</time>
   <energy>
    <i name="e_fr_energy">   -207.09906642 </i>
    <i name="e_wo_entrp">   -207.09906642 </i>
    <i name="e_0_energy">   -207.09906642 </i>
   </energy>
  </scstep>
  <scstep>
   <time name="dav">   21.13   21.13</time>
   <time name="total">   23.28   23.28</time>
   <energy>
    <i name="e_fr_energy">   -207.09906642 </i>
    <i name="e_wo_entrp">   -207.09906642 </i>
    <i name="e_0_energy">   -207.09906642 </i>
   </energy>
  </scstep>
  <scstep>
   <time name="dav">   20.61   20.61</time>
   <time name="total">   21.44   21.45</time>
   <energy>
    <i name="alphaZ">   1455.32177217 </i>
    <i name="ewald"> -30728.59931887 </i>
    <i name="hartreedc"> -10798.00851411 </i>
    <i name="XCdc">   1260.80245529 </i>
    <i name="pawpsdc">  37019.44008353 </i>
    <i name="pawaedc"> -36423.60778103 </i>
    <i name="eentropy">     -0.00000000 </i>
    <i name="bandstr">  -2334.09960930 </i>
    <i name="atom">  40341.65184589 </i>
    <i name="e_fr_energy">   -207.09906641 </i>
    <i name="e_wo_entrp">   -207.09906641 </i>
    <i name="e_0_energy">   -207.09906641 </i>
   </energy>
  </scstep>
  <structure>
   <crystal>
    <varray name="basis" >
     <v>       7.60495428       0.00000000       0.00000000 </v>
     <v>       0.00000000       7.60495428       0.00000000 </v>
     <v>       0.00000000       0.00000000      12.00152075 </v>
    </varray>
    <i name="volume">    694.11190791 </i>
    <varray name="rec_basis" >
     <v>       0.13149323       0.00000000       0.00000000 </v>
     <v>       0.00000000       0.13149323       0.00000000 </v>
     <v>       0.00000000       0.00000000       0.08332277 </v>
    </varray>
   </crystal>
   <varray name="positions" >
    <v>       0.24868835       0.24868835       0.85840860 </v>
    <v>       0.75131165       0.24868835       0.85840860 </v>
    <v>       0.24868835       0.75131165       0.85840860 </v>
    <v>       0.75131165       0.75131165       0.85840860 </v>
    <v>       0.00000000       0.00000000       0.64240765 </v>
    <v>       0.50000000       0.00000000       0.64332109 </v>
    <v>       0.00000000       0.50000000       0.64332109 </v>
    <v>       0.50000000       0.50000000       0.64431420 </v>
    <v>       0.00000000       0.00000000       0.35759235 </v>
    <v>       0.50000000       0.00000000       0.35667891 </v>
    <v>       0.00000000       0.50000000       0.35667891 </v>
    <v>       0.50000000       0.50000000       0.35568580 </v>
    <v>       0.24868835       0.24868835       0.14159140 </v>
    <v>       0.75131165       0.24868835       0.14159140 </v>
    <v>       0.24868835       0.75131165       0.14159140 </v>
    <v>       0.75131165       0.75131165       0.14159140 </v>
    <v>       0.50000000       0.00000000       0.00000000 </v>
    <v>       0.00000000       0.50000000       0.00000000 </v>
    <v>       0.50000000       0.50000000       0.00000000 </v>
    <v>       0.25047630       0.25047630       0.50000000 </v>
    <v>       0.74952370       0.25047630       0.50000000 </v>
    <v>       0.25047630       0.74952370       0.50000000 </v>
    <v>       0.74952370       0.74952370       0.50000000 </v>
    <v>       0.00000000       0.24938910       0.75022997 </v>
    <v>       0.50000000       0.24952135       0.75157057 </v>
    <v>       0.00000000       0.75061090       0.75022997 </v>
    <v>       0.50000000       0.75047865       0.75157057 </v>
    <v>       0.24938910       0.00000000       0.75022997 </v>
    <v>       0.75061090       0.00000000       0.75022997 </v>
    <v>       0.24952135       0.50000000       0.75157057 </v>
    <v>       0.75047865       0.50000000       0.75157057 </v>
    <v>       0.24938910       0.00000000       0.24977003 </v>
    <v>       0.75061090       0.00000000       0.24977003 </v>
    <v>       0.24952135       0.50000000       0.24842943 </v>
    <v>       0.75047865       0.50000000       0.24842943 </v>
    <v>       0.00000000       0.24938910       0.24977003 </v>
    <v>       0.50000000       0.24952135       0.24842943 </v>
    <v>       0.00000000       0.75061090       0.24977003 </v>
    <v>       0.50000000       0.75047865       0.24842943 </v>
    <v>       0.00000000       0.00000000       0.00000000 </v>
   </varray>
  </structure>
  <varray name="forces" >
   <v>      -0.00006692      -0.00006692       0.00009321 </v>
   <v>       0.00006692      -0.00006692       0.00009321 </v>
   <v>      -0.00006692       0.00006692       0.00009321 </v>
   <v>       0.00006692       0.00006692       0.00009321 </v>
   <v>      -0.00000000       0.00000000      -0.00004549 </v>
   <v>      -0.00000000       0.00000000       0.00007023 </v>
   <v>      -0.00000000       0.00000000       0.00007023 </v>
   <v>      -0.00000000       0.00000000       0.00012166 </v>
   <v>      -0.00000000       0.00000000       0.00004549 </v>
   <v>      -0.00000000       0.00000000      -0.00007023 </v>
   <v>      -0.00000000       0.00000000      -0.00007023 </v>
   <v>      -0.00000000       0.00000000      -0.00012166 </v>
   <v>      -0.00006692      -0.00006692      -0.00009321 </v>
   <v>       0.00006692      -0.00006692      -0.00009321 </v>
   <v>      -0.00006692       0.00006692      -0.00009321 </v>
   <v>       0.00006692       0.00006692      -0.00009321 </v>
   <v>      -0.00000000       0.00000000      -0.00000000 </v>
   <v>      -0.00000000       0.00000000      -0.00000000 </v>
   <v>      -0.00000000       0.00000000      -0.00000000 </v>
   <v>       0.00010565       0.00010565      -0.00000000 </v>
   <v>      -0.00010565       0.00010565      -0.00000000 </v>
   <v>       0.00010565      -0.00010565      -0.00000000 </v>
   <v>      -0.00010565      -0.00010565      -0.00000000 </v>
   <v>      -0.00000000       0.00000749       0.00004075 </v>
   <v>      -0.00000000      -0.00001284       0.00004019 </v>
   <v>      -0.00000000      -0.00000749       0.00004075 </v>
   <v>      -0.00000000       0.00001284       0.00004019 </v>
   <v>       0.00000749       0.00000000       0.00004075 </v>
   <v>      -0.00000749       0.00000000       0.00004075 </v>
   <v>      -0.00001284       0.00000000       0.00004019 </v>
   <v>       0.00001284       0.00000000       0.00004019 </v>
   <v>       0.00000749       0.00000000      -0.00004075 </v>
   <v>      -0.00000749       0.00000000      -0.00004075 </v>
   <v>      -0.00001284       0.00000000      -0.00004019 </v>
   <v>       0.00001284       0.00000000      -0.00004019 </v>
   <v>      -0.00000000       0.00000749      -0.00004075 </v>
   <v>      -0.00000000      -0.00001284      -0.00004019 </v>
   <v>      -0.00000000      -0.00000749      -0.00004075 </v>
   <v>      -0.00000000       0.00001284      -0.00004019 </v>
   <v>      -0.00000000       0.00000000      -0.00000000 </v>
  </varray>
  <varray name="stress" >
   <v>      96.73561614       0.00000000      -0.00000000 </v>
   <v>       0.00000000      96.73561614       0.00000000 </v>
   <v>       0.00000000       0.00000000      75.21152343 </v>
  </varray>
  <energy>
   <i name="e_fr_energy">   -207.09906641 </i>
   <i name="e_wo_entrp">   -207.09906641 </i>
   <i name="e_0_energy">   -207.09906641 </i>
  </energy>
  <time name="totalsc">  173.92  173.95</time>
 </calculation>
 <calculation>
  <scstep>
   <time name="dav">   29.89   29.92</time>
   <time name="total">   32.04   32.07</time>
   <energy>
    <i name="alphaZ">   1455.32177217 </i>
    <i name="ewald"> -30728.59849478 </i>
    <i name="hartreedc"> -10798.00930478 </i>
    <i name="XCdc">   1260.80245780 </i>
    <i name="pawpsdc">  37019.43985469 </i>
    <i name="pawaedc"> -36423.60755219 </i>
    <i name="eentropy">     -0.00000000 </i>
    <i name="bandstr">  -2334.09964522 </i>
    <i name="atom">  40341.65184589 </i>
    <i name="e_fr_energy">   -207.09906641 </i>
    <i name="e_wo_entrp">   -207.09906641 </i>
    <i name="e_0_energy">   -207.09906641 </i>
   </energy>
  </scstep>
  <scstep>
   <time name="dav">   21.18   21.19</time>
   <time name="total">   23.33   23.34</time>
   <energy>
    <i name="e_fr_energy">   -207.09906642 </i>
    <i name="e_wo_entrp">   -207.09906642 </i>
    <i name="e_0_energy">   -207.09906642 </i>
   </energy>
  </scstep>
  <scstep>
   <time name="dav">   20.41   20.41</time>
   <time name="total">   22.55   22.55</time>
   <energy>
    <i name="e_fr_energy">   -207.09906642 </i>
    <i name="e_wo_entrp">   -207.09906642 </i>
    <i name="e_0_energy">   -207.09906642 </i>
   </energy>
  </scstep>
  <scstep>
   <time name="dav">   20.32   20.32</time>
   <time name="total">   22.46   22.46</time>
   <energy>
    <i name="e_fr_energy">   -207.09906642 </i>
    <i name="e_wo_entrp">   -207.09906642 </i>
    <i name="e_0_energy">   -207.09906642 </i>
   </energy>
  </scstep>
  <scstep>
   <time name="dav">   20.30   20.30</time>
   <time name="total">   21.13   21.13</time>
   <energy>
    <i name="alphaZ">   1455.32177217 </i>
    <i name="ewald"> -30728.59849478 </i>
    <i name="hartreedc"> -10798.00929963 </i>
    <i name="XCdc">   1260.80245882 </i>
    <i name="pawpsdc">  37019.43948283 </i>
    <i name="pawaedc"> -36423.60718435 </i>
    <i name="eentropy">     -0.00000000 </i>
    <i name="bandstr">  -2334.09964737 </i>
    <i name="atom">  40341.65184589 </i>
    <i name="e_fr_energy">   -207.09906642 </i>
    <i name="e_wo_entrp">   -207.09906642 </i>
    <i name="e_0_energy">   -207.09906642 </i>
   </energy>
  </scstep>
  <structure>
   <crystal>
    <varray name="basis" >
     <v>       7.60495428       0.00000000       0.00000000 </v>
     <v>       0.00000000       7.60495428       0.00000000 </v>
     <v>       0.00000000       0.00000000      12.00152075 </v>
    </varray>
    <i name="volume">    694.11190791 </i>
    <varray name="rec_basis" >
     <v>       0.13149323       0.00000000       0.00000000 </v>
     <v>       0.00000000       0.13149323       0.00000000 </v>
     <v>       0.00000000       0.00000000       0.08332277 </v>
    </varray>
   </crystal>
   <varray name="positions" >
    <v>       0.24868846       0.24868846       0.85840864 </v>
    <v>       0.75131154       0.24868846       0.85840864 </v>
    <v>       0.24868846       0.75131154       0.85840864 </v>
    <v>       0.75131154       0.75131154       0.85840864 </v>
    <v>       1.00000000       1.00000000       0.64240787 </v>
    <v>       0.50000000       1.00000000       0.64332114 </v>
    <v>       1.00000000       0.50000000       0.64332114 </v>
    <v>       0.50000000       0.50000000       0.64431411 </v>
    <v>       1.00000000       1.00000000       0.35759213 </v>
    <v>       0.50000000       1.00000000       0.35667886 </v>
    <v>       1.00000000       0.50000000       0.35667886 </v>
    <v>       0.50000000       0.50000000       0.35568589 </v>
    <v>       0.24868846       0.24868846       0.14159136 </v>
    <v>       0.75131154       0.24868846       0.14159136 </v>
    <v>       0.24868846       0.75131154       0.14159136 </v>
    <v>       0.75131154       0.75131154       0.14159136 </v>
    <v>       0.50000000       1.00000000       1.00000000 </v>
    <v>       1.00000000       0.50000000       1.00000000 </v>
    <v>       0.50000000       0.50000000       1.00000000 </v>
    <v>       0.25047647       0.25047647       0.50000000 </v>
    <v>       0.74952353       0.25047647       0.50000000 </v>
    <v>       0.25047647       0.74952353       0.50000000 </v>
    <v>       0.74952353       0.74952353       0.50000000 </v>
    <v>       1.00000000       0.24938918       0.75022994 </v>
    <v>       0.50000000       0.24952144       0.75157074 </v>
    <v>       1.00000000       0.75061082       0.75022994 </v>
    <v>       0.50000000       0.75047856       0.75157074 </v>
    <v>       0.24938918       1.00000000       0.75022994 </v>
    <v>       0.75061082       1.00000000       0.75022994 </v>
    <v>       0.24952144       0.50000000       0.75157074 </v>
    <v>       0.75047856       0.50000000       0.75157074 </v>
    <v>       0.24938918       1.00000000       0.24977006 </v>
    <v>       0.75061082       1.00000000       0.24977006 </v>
    <v>       0.24952144       0.50000000       0.24842926 </v>
    <v>       0.75047856       0.50000000       0.24842926 </v>
    <v>       1.00000000       0.24938918       0.24977006 </v>
    <v>       0.50000000       0.24952144       0.24842926 </v>
    <v>       1.00000000       0.75061082       0.24977006 </v>
    <v>       0.50000000       0.75047856       0.24842926 </v>
    <v>       1.00000000       1.00000000       1.00000000 </v>
   </varray>
  </structure>
  <varray name="forces" >
   <v>      -0.00007025      -0.00007025       0.00009833 </v>
   <v>       0.00007025      -0.00007025       0.00009833 </v>
   <v>      -0.00007025       0.00007025       0.00009833 </v>
   <v>       0.00007025       0.00007025       0.00009833 </v>
   <v>      -0.00000000      -0.00000000      -0.00004563 </v>
   <v>      -0.00000000      -0.00000000       0.00007374 </v>
   <v>       0.00000000      -0.00000000       0.00007374 </v>
   <v>       0.00000000      -0.00000000       0.00012898 </v>
   <v>      -0.00000000      -0.00000000       0.00004563 </v>
   <v>       0.00000000      -0.00000000      -0.00007374 </v>
   <v>       0.00000000      -0.00000000      -0.00007374 </v>
   <v>      -0.00000000      -0.00000000      -0.00012898 </v>
   <v>      -0.00007025      -0.00007025      -0.00009833 </v>
   <v>       0.00007025      -0.00007025      -0.00009833 </v>
   <v>      -0.00007025       0.00007025      -0.00009833 </v>
   <v>       0.00007025       0.00007025      -0.00009833 </v>
   <v>      -0.00000000      -0.00000000       0.00000000 </v>
   <v>       0.00000000      -0.00000000       0.00000000 </v>
   <v>      -0.00000000      -0.00000000       0.00000000 </v>
   <v>       0.00008924       0.00008924       0.00000000 </v>
   <v>      -0.00008924       0.00008924       0.00000000 </v>
   <v>       0.00008924      -0.00008924       0.00000000 </v>
   <v>      -0.00008924      -0.00008924       0.00000000 </v>
   <v>       0.00000000      -0.00000221       0.00004705 </v>
   <v>      -0.00000000      -0.00002486       0.00000885 </v>
   <v>       0.00000000       0.00000221       0.00004705 </v>
   <v>       0.00000000       0.00002486       0.00000885 </v>
   <v>      -0.00000221      -0.00000000       0.00004705 </v>
   <v>       0.00000221      -0.00000000       0.00004705 </v>
   <v>      -0.00002486      -0.00000000       0.00000885 </v>
   <v>       0.00002486      -0.00000000       0.00000885 </v>
   <v>      -0.00000221      -0.00000000      -0.00004705 </v>
   <v>       0.00000221      -0.00000000      -0.00004705 </v>
   <v>      -0.00002486      -0.00000000      -0.00000885 </v>
   <v>       0.00002486      -0.00000000      -0.00000885 </v>
   <v>       0.00000000      -0.00000221      -0.00004705 </v>
   <v>      -0.00000000      -0.00002486      -0.00000885 </v>
   <v>      -0.00000000       0.00000221      -0.00004705 </v>
   <v>      -0.00000000       0.00002486      -0.00000885 </v>
   <v>      -0.00000000      -0.00000000       0.00000000 </v>
  </varray>
  <varray name="stress" >
   <v>      96.73558890       0.00000000      -0.00000000 </v>
   <v>       0.00000000      96.73558890       0.00000000 </v>
   <v>      -0.00000000       0.00000000      75.21151873 </v>
  </varray>
  <energy>
   <i name="e_fr_energy">   -207.09906642 </i>
   <i name="e_wo_entrp">   -207.09906642 </i>
   <i name="e_0_energy">   -207.09906642 </i>
  </energy>
  <time name="totalsc">  153.81  153.85</time>
 </calculation>
 <calculation>
  <scstep>
   <time name="dav">   30.95   30.95</time>
   <time name="total">   33.10   33.10</time>
   <energy>
    <i name="alphaZ">   1455.32177217 </i>
    <i name="ewald"> -30728.60415708 </i>
    <i name="hartreedc"> -10798.00405631 </i>
    <i name="XCdc">   1260.80243506 </i>
    <i name="pawpsdc">  37019.43957628 </i>
    <i name="pawaedc"> -36423.60727769 </i>
    <i name="eentropy">     -0.00000000 </i>
    <i name="bandstr">  -2334.09920473 </i>
    <i name="atom">  40341.65184589 </i>
    <i name="e_fr_energy">   -207.09906641 </i>
    <i name="e_wo_entrp">   -207.09906641 </i>
    <i name="e_0_energy">   -207.09906641 </i>
   </energy>
  </scstep>
  <scstep>
   <time name="dav">   36.90   36.90</time>
   <time name="total">   39.05   39.05</time>
   <energy>
    <i name="e_fr_energy">   -207.09906642 </i>
    <i name="e_wo_entrp">   -207.09906642 </i>
    <i name="e_0_energy">   -207.09906642 </i>
   </energy>
  </scstep>
  <scstep>
   <time name="dav">   20.60   20.60</time>
   <time name="total">   22.75   22.75</time>
   <energy>
    <i name="e_fr_energy">   -207.09906642 </i>
    <i name="e_wo_entrp">   -207.09906642 </i>
    <i name="e_0_energy">   -207.09906642 </i>
   </energy>
  </scstep>
  <scstep>
   <time name="dav">   20.30   20.30</time>
   <time name="total">   22.45   22.45</time>
   <energy>
    <i name="e_fr_energy">   -207.09906642 </i>
    <i name="e_wo_entrp">   -207.09906642 </i>
    <i name="e_0_energy">   -207.09906642 </i>
   </energy>
  </scstep>
  <scstep>
   <time name="dav">   20.32   20.33</time>
   <time name="total">   21.16   21.16</time>
   <energy>
    <i name="alphaZ">   1455.32177217 </i>
    <i name="ewald"> -30728.60415708 </i>
    <i name="hartreedc"> -10798.00396824 </i>
    <i name="XCdc">   1260.80241837 </i>
    <i name="pawpsdc">  37019.43747258 </i>
    <i name="pawaedc"> -36423.60514118 </i>
    <i name="eentropy">     -0.00000000 </i>
    <i name="bandstr">  -2334.09930895 </i>
    <i name="atom">  40341.65184589 </i>
    <i name="e_fr_energy">   -207.09906642 </i>
    <i name="e_wo_entrp">   -207.09906642 </i>
    <i name="e_0_energy">   -207.09906642 </i>
   </energy>
  </scstep>
  <structure>
   <crystal>
    <varray name="basis" >
     <v>       7.60495428       0.00000000       0.00000000 </v>
     <v>       0.00000000       7.60495428       0.00000000 </v>
     <v>       0.00000000       0.00000000      12.00152075 </v>
    </varray>
    <i name="volume">    694.11190791 </i>
    <varray name="rec_basis" >
     <v>       0.13149323       0.00000000       0.00000000 </v>
     <v>       0.00000000       0.13149323       0.00000000 </v>
     <v>       0.00000000       0.00000000       0.08332277 </v>
    </varray>
   </crystal>
   <varray name="positions" >
    <v>       0.24868810       0.24868810       0.85840922 </v>
    <v>       0.75131190       0.24868810       0.85840922 </v>
    <v>       0.24868810       0.75131190       0.85840922 </v>
    <v>       0.75131190       0.75131190       0.85840922 </v>
    <v>       0.00000000       0.00000000       0.64240806 </v>
    <v>       0.50000000       0.00000000       0.64332161 </v>
    <v>       0.00000000       0.50000000       0.64332161 </v>
    <v>       0.50000000       0.50000000       0.64431461 </v>
    <v>       0.00000000       0.00000000       0.35759194 </v>
    <v>       0.50000000       0.00000000       0.35667839 </v>
    <v>       0.00000000       0.50000000       0.35667839 </v>
    <v>       0.50000000       0.50000000       0.35568539 </v>
    <v>       0.24868810       0.24868810       0.14159078 </v>
    <v>       0.75131190       0.24868810       0.14159078 </v>
    <v>       0.24868810       0.75131190       0.14159078 </v>
    <v>       0.75131190       0.75131190       0.14159078 </v>
    <v>       0.50000000       0.00000000       0.00000000 </v>
    <v>       0.00000000       0.50000000       0.00000000 </v>
    <v>       0.50000000       0.50000000       0.00000000 </v>
    <v>       0.25047753       0.25047753       0.50000000 </v>
    <v>       0.74952247       0.25047753       0.50000000 </v>
    <v>       0.25047753       0.74952247       0.50000000 </v>
    <v>       0.74952247       0.74952247       0.50000000 </v>
    <v>       0.00000000       0.24938931       0.75023014 </v>
    <v>       0.50000000       0.24952140       0.75157112 </v>
    <v>       0.00000000       0.75061069       0.75023014 </v>
    <v>       0.50000000       0.75047860       0.75157112 </v>
    <v>       0.24938931       0.00000000       0.75023014 </v>
    <v>       0.75061069       0.00000000       0.75023014 </v>
    <v>       0.24952140       0.50000000       0.75157112 </v>
    <v>       0.75047860       0.50000000       0.75157112 </v>
    <v>       0.24938931       0.00000000       0.24976986 </v>
    <v>       0.75061069       0.00000000       0.24976986 </v>
    <v>       0.24952140       0.50000000       0.24842888 </v>
    <v>       0.75047860       0.50000000       0.24842888 </v>
    <v>       0.00000000       0.24938931       0.24976986 </v>
    <v>       0.50000000       0.24952140       0.24842888 </v>
    <v>       0.00000000       0.75061069       0.24976986 </v>
    <v>       0.50000000       0.75047860       0.24842888 </v>
    <v>       0.00000000       0.00000000       0.00000000 </v>
   </varray>
  </structure>
  <varray name="forces" >
   <v>       0.00001566       0.00001566      -0.00001095 </v>
   <v>      -0.00001566       0.00001566      -0.00001095 </v>
   <v>       0.00001566      -0.00001566      -0.00001095 </v>
   <v>      -0.00001566      -0.00001566      -0.00001095 </v>
   <v>       0.00000000      -0.00000000      -0.00002037 </v>
   <v>       0.00000000      -0.00000000       0.00001235 </v>
   <v>      -0.00000000      -0.00000000       0.00001235 </v>
   <v>      -0.00000000      -0.00000000       0.00005145 </v>
   <v>      -0.00000000      -0.00000000       0.00002037 </v>
   <v>      -0.00000000      -0.00000000      -0.00001235 </v>
   <v>       0.00000000      -0.00000000      -0.00001235 </v>
   <v>       0.00000000      -0.00000000      -0.00005145 </v>
   <v>       0.00001566       0.00001566       0.00001095 </v>
   <v>      -0.00001566       0.00001566       0.00001095 </v>
   <v>       0.00001566      -0.00001566       0.00001095 </v>
   <v>      -0.00001566      -0.00001566       0.00001095 </v>
   <v>      -0.00000000      -0.00000000      -0.00000000 </v>
   <v>      -0.00000000      -0.00000000      -0.00000000 </v>
   <v>       0.00000000      -0.00000000      -0.00000000 </v>
   <v>       0.00004457       0.00004457      -0.00000000 </v>
   <v>      -0.00004457       0.00004457      -0.00000000 </v>
   <v>       0.00004457      -0.00004457      -0.00000000 </v>
   <v>      -0.00004457      -0.00004457      -0.00000000 </v>
   <v>       0.00000000      -0.00003732       0.00006627 </v>
   <v>       0.00000000      -0.00003895       0.00006057 </v>
   <v>       0.00000000       0.00003732       0.00006627 </v>
   <v>      -0.00000000       0.00003895       0.00006057 </v>
   <v>      -0.00003732      -0.00000000       0.00006627 </v>
   <v>       0.00003732      -0.00000000       0.00006627 </v>
   <v>      -0.00003895      -0.00000000       0.00006057 </v>
   <v>       0.00003895      -0.00000000       0.00006057 </v>
   <v>      -0.00003732      -0.00000000      -0.00006627 </v>
   <v>       0.00003732      -0.00000000      -0.00006627 </v>
   <v>      -0.00003895      -0.00000000      -0.00006057 </v>
   <v>       0.00003895      -0.00000000      -0.00006057 </v>
   <v>       0.00000000      -0.00003732      -0.00006627 </v>
   <v>       0.00000000      -0.00003895      -0.00006057 </v>
   <v>      -0.00000000       0.00003732      -0.00006627 </v>
   <v>       0.00000000       0.00003895      -0.00006057 </v>
   <v>      -0.00000000      -0.00000000      -0.00000000 </v>
  </varray>
  <varray name="stress" >
   <v>      96.73505892       0.00000000       0.00000000 </v>
   <v>       0.00000000      96.73505892       0.00000000 </v>
   <v>       0.00000000       0.00000000      75.21092318 </v>
  </varray>
  <energy>
   <i name="e_fr_energy">   -207.09906642 </i>
   <i name="e_wo_entrp">   -207.09906642 </i>
   <i name="e_0_energy">   -207.09906642 </i>
  </energy>
  <time name="totalsc">  170.86  170.87</time>
 </calculation>
 <calculation>
  <scstep>
   <time name="dav">   30.88   30.88</time>
   <time name="total">   33.03   33.04</time>
   <energy>
    <i name="alphaZ">   1455.32177217 </i>
    <i name="ewald"> -30728.60659710 </i>
    <i name="hartreedc"> -10798.00169528 </i>
    <i name="XCdc">   1260.80240676 </i>
    <i name="pawpsdc">  37019.43718682 </i>
    <i name="pawaedc"> -36423.60485462 </i>
    <i name="eentropy">     -0.00000000 </i>
    <i name="bandstr">  -2334.09913106 </i>
    <i name="atom">  40341.65184589 </i>
    <i name="e_fr_energy">   -207.09906642 </i>
    <i name="e_wo_entrp">   -207.09906642 </i>
    <i name="e_0_energy">   -207.09906642 </i>
   </energy>
  </scstep>
  <scstep>
   <time name="dav">   25.85   25.85</time>
   <time name="total">   27.99   27.99</time>
   <energy>
    <i name="e_fr_energy">   -207.09906642 </i>
    <i name="e_wo_entrp">   -207.09906642 </i>
    <i name="e_0_energy">   -207.09906642 </i>
   </energy>
  </scstep>
  <scstep>
   <time name="dav">   20.25   20.27</time>
   <time name="total">   22.40   22.41</time>
   <energy>
    <i name="e_fr_energy">   -207.09906642 </i>
    <i name="e_wo_entrp">   -207.09906642 </i>
    <i name="e_0_energy">   -207.09906642 </i>
   </energy>
  </scstep>
  <scstep>
   <time name="dav">   20.31   20.32</time>
   <time name="total">   22.45   22.47</time>
   <energy>
    <i name="e_fr_energy">   -207.09906642 </i>
    <i name="e_wo_entrp">   -207.09906642 </i>
    <i name="e_0_energy">   -207.09906642 </i>
   </energy>
  </scstep>
  <scstep>
   <time name="dav">   20.34   20.34</time>
   <time name="total">   21.17   21.17</time>
   <energy>
    <i name="alphaZ">   1455.32177217 </i>
    <i name="ewald"> -30728.60659710 </i>
    <i name="hartreedc"> -10798.00166351 </i>
    <i name="XCdc">   1260.80240038 </i>
    <i name="pawpsdc">  37019.43711664 </i>
    <i name="pawaedc"> -36423.60477135 </i>
    <i name="eentropy">     -0.00000000 </i>
    <i name="bandstr">  -2334.09916956 </i>
    <i name="atom">  40341.65184589 </i>
    <i name="e_fr_energy">   -207.09906642 </i>
    <i name="e_wo_entrp">   -207.09906642 </i>
    <i name="e_0_energy">   -207.09906642 </i>
   </energy>
  </scstep>
  <structure>
   <crystal>
    <varray name="basis" >
     <v>       7.60495428       0.00000000       0.00000000 </v>
     <v>       0.00000000       7.60495428       0.00000000 </v>
     <v>       0.00000000       0.00000000      12.00152075 </v>
    </varray>
    <i name="volume">    694.11190791 </i>
    <varray name="rec_basis" >
     <v>       0.13149323       0.00000000       0.00000000 </v>
     <v>       0.00000000       0.13149323       0.00000000 </v>
     <v>       0.00000000       0.00000000       0.08332277 </v>
    </varray>
   </crystal>
   <varray name="positions" >
    <v>       0.24868794       0.24868794       0.85840947 </v>
    <v>       0.75131206       0.24868794       0.85840947 </v>
    <v>       0.24868794       0.75131206       0.85840947 </v>
    <v>       0.75131206       0.75131206       0.85840947 </v>
    <v>       1.00000000       1.00000000       0.64240814 </v>
    <v>       0.50000000       1.00000000       0.64332181 </v>
    <v>       1.00000000       0.50000000       0.64332181 </v>
    <v>       0.50000000       0.50000000       0.64431483 </v>
    <v>       1.00000000       1.00000000       0.35759186 </v>
    <v>       0.50000000       1.00000000       0.35667819 </v>
    <v>       1.00000000       0.50000000       0.35667819 </v>
    <v>       0.50000000       0.50000000       0.35568517 </v>
    <v>       0.24868794       0.24868794       0.14159053 </v>
    <v>       0.75131206       0.24868794       0.14159053 </v>
    <v>       0.24868794       0.75131206       0.14159053 </v>
    <v>       0.75131206       0.75131206       0.14159053 </v>
    <v>       0.50000000       1.00000000       0.00000000 </v>
    <v>       1.00000000       0.50000000       0.00000000 </v>
    <v>       0.50000000       0.50000000       0.00000000 </v>
    <v>       0.25047799       0.25047799       0.50000000 </v>
    <v>       0.74952201       0.25047799       0.50000000 </v>
    <v>       0.25047799       0.74952201       0.50000000 </v>
    <v>       0.74952201       0.74952201       0.50000000 </v>
    <v>       1.00000000       0.24938936       0.75023023 </v>
    <v>       0.50000000       0.24952139       0.75157128 </v>
    <v>       1.00000000       0.75061064       0.75023023 </v>
    <v>       0.50000000       0.75047861       0.75157128 </v>
    <v>       0.24938936       1.00000000       0.75023023 </v>
    <v>       0.75061064       1.00000000       0.75023023 </v>
    <v>       0.24952139       0.50000000       0.75157128 </v>
    <v>       0.75047861       0.50000000       0.75157128 </v>
    <v>       0.24938936       1.00000000       0.24976977 </v>
    <v>       0.75061064       1.00000000       0.24976977 </v>
    <v>       0.24952139       0.50000000       0.24842872 </v>
    <v>       0.75047861       0.50000000       0.24842872 </v>
    <v>       1.00000000       0.24938936       0.24976977 </v>
    <v>       0.50000000       0.24952139       0.24842872 </v>
    <v>       1.00000000       0.75061064       0.24976977 </v>
    <v>       0.50000000       0.75047861       0.24842872 </v>
    <v>       1.00000000       1.00000000       0.00000000 </v>
   </varray>
  </structure>
  <varray name="forces" >
   <v>       0.00004187       0.00004187      -0.00006310 </v>
   <v>      -0.00004187       0.00004187      -0.00006310 </v>
   <v>       0.00004187      -0.00004187      -0.00006310 </v>
   <v>      -0.00004187      -0.00004187      -0.00006310 </v>
   <v>       0.00000000       0.00000000      -0.00004210 </v>
[...]
       <r>    7.1137    1.0000 </r>
       <r>    7.1348    1.0000 </r>
       <r>    9.2630    0.0000 </r>
       <r>    9.3010    0.0000 </r>
       <r>    9.3010    0.0000 </r>
       <r>    9.3351    0.0000 </r>
       <r>   10.0856    0.0000 </r>
       <r>   10.1191    0.0000 </r>
       <r>   10.1191    0.0000 </r>
       <r>   10.1485    0.0000 </r>
       <r>   10.3937    0.0000 </r>
       <r>   10.4038    0.0000 </r>
       <r>   10.4237    0.0000 </r>
       <r>   10.4237    0.0000 </r>
       <r>   10.7326    0.0000 </r>
       <r>   10.7559    0.0000 </r>
       <r>   10.7766    0.0000 </r>
       <r>   10.7766    0.0000 </r>
       <r>   11.2140    0.0000 </r>
       <r>   11.2140    0.0000 </r>
       <r>   11.2458    0.0000 </r>
       <r>   11.2778    0.0000 </r>
       <r>   11.3254    0.0000 </r>
       <r>   11.3536    0.0000 </r>
       <r>   11.3536    0.0000 </r>
       <r>   11.3869    0.0000 </r>
       <r>   12.2587    0.0000 </r>
       <r>   12.2587    0.0000 </r>
       <r>   12.2764    0.0000 </r>
       <r>   12.2877    0.0000 </r>
       <r>   12.4331    0.0000 </r>
       <r>   12.4331    0.0000 </r>
       <r>   12.4340    0.0000 </r>
       <r>   12.4573    0.0000 </r>
       <r>   12.9064    0.0000 </r>
       <r>   12.9470    0.0000 </r>
       <r>   12.9470    0.0000 </r>
       <r>   12.9601    0.0000 </r>
       <r>   12.9969    0.0000 </r>
       <r>   12.9969    0.0000 </r>
       <r>   13.0864    0.0000 </r>
       <r>   13.0923    0.0000 </r>
      </set>
     </set>
    </set>
   </array>
  </eigenvalues>
  <separator name="orbital magnetization" >
   <v name="MAGDIPOLOUT">      0.00000000      0.00000000      0.00000000</v>
  </separator>
  <dos>
   <i name="efermi">      7.52197719 </i>
   <total>
    <array>
     <dimension dim="1">gridpoints</dimension>
     <dimension dim="2">spin</dimension>
     <field>energy</field>
     <field>total</field>
     <field>integrated</field>
     <set>
      <set comment="spin 1">
       <r>   -17.0863     0.0000     0.0000 </r>
       <r>   -16.9798     0.0000     0.0000 </r>
       <r>   -16.8734     0.0000     0.0000 </r>
       <r>   -16.7669     0.0000     0.0000 </r>
       <r>   -16.6604     0.0000     0.0000 </r>
       <r>   -16.5540     0.0000     0.0000 </r>
       <r>   -16.4475     0.0000     0.0000 </r>
       <r>   -16.3410     0.0000     0.0000 </r>
       <r>   -16.2345     0.0000     0.0000 </r>
       <r>   -16.1281     0.0000     0.0000 </r>
       <r>   -16.0216     0.0000     0.0000 </r>
       <r>   -15.9151     0.0000     0.0000 </r>
       <r>   -15.8086     0.0000     0.0000 </r>
       <r>   -15.7022     0.6139     0.0654 </r>
       <r>   -15.5957    97.7109    10.4688 </r>
       <r>   -15.4892   142.3452    25.6246 </r>
       <r>   -15.3828   350.9544    62.9913 </r>
       <r>   -15.2763   817.4074   150.0221 </r>
       <r>   -15.1698    93.6814   159.9965 </r>
       <r>   -15.0633     0.0326   160.0000 </r>
       <r>   -14.9569     0.0000   160.0000 </r>
       <r>   -14.8504     0.0000   160.0000 </r>
       <r>   -14.7439     0.0000   160.0000 </r>
       <r>   -14.6375     0.0000   160.0000 </r>
       <r>   -14.5310     0.0000   160.0000 </r>
       <r>   -14.4245     0.0000   160.0000 </r>
       <r>   -14.3180     0.0000   160.0000 </r>
       <r>   -14.2116     0.0000   160.0000 </r>
       <r>   -14.1051     0.0000   160.0000 </r>
       <r>   -13.9986     0.0000   160.0000 </r>
       <r>   -13.8922     0.0000   160.0000 </r>
       <r>   -13.7857     0.0000   160.0000 </r>
       <r>   -13.6792     0.0000   160.0000 </r>
       <r>   -13.5727     0.0000   160.0000 </r>
       <r>   -13.4663     0.0000   160.0000 </r>
       <r>   -13.3598     0.0000   160.0000 </r>
       <r>   -13.2533     0.0000   160.0000 </r>
       <r>   -13.1469     0.0000   160.0000 </r>
       <r>   -13.0404     0.0000   160.0000 </r>
       <r>   -12.9339     0.0000   160.0000 </r>
       <r>   -12.8274     0.0000   160.0000 </r>
       <r>   -12.7210     0.0000   160.0000 </r>
       <r>   -12.6145     0.0000   160.0000 </r>
       <r>   -12.5080     0.0002   160.0000 </r>
       <r>   -12.4016     0.4825   160.0514 </r>
       <r>   -12.2951     2.8327   160.3530 </r>
       <r>   -12.1886     8.5785   161.2664 </r>
       <r>   -12.0821     8.4570   162.1668 </r>
       <r>   -11.9757     1.1850   162.2930 </r>
       <r>   -11.8692     8.4665   163.1944 </r>
       <r>   -11.7627    16.7217   164.9748 </r>
       <r>   -11.6562     2.5860   165.2501 </r>
       <r>   -11.5498     1.9562   165.4584 </r>
       <r>   -11.4433     8.9041   166.4065 </r>
       <r>   -11.3368    15.5067   168.0575 </r>
       <r>   -11.2304    11.1454   169.2442 </r>
       <r>   -11.1239     5.5861   169.8389 </r>
       <r>   -11.0174    13.0330   171.2266 </r>
       <r>   -10.9109     0.5335   171.2834 </r>
       <r>   -10.8045    18.6458   173.2686 </r>
       <r>   -10.6980    21.0734   175.5123 </r>
       <r>   -10.5915    15.7671   177.1911 </r>
       <r>   -10.4851    16.0521   178.9002 </r>
       <r>   -10.3786     9.3685   179.8977 </r>
       <r>   -10.2721    39.7635   184.1314 </r>
       <r>   -10.1656    15.1834   185.7480 </r>
       <r>   -10.0592     2.6413   186.0292 </r>
       <r>    -9.9527    11.8682   187.2928 </r>
       <r>    -9.8462    22.2441   189.6612 </r>
       <r>    -9.7398     4.0635   190.0938 </r>
       <r>    -9.6333    13.7920   191.5623 </r>
       <r>    -9.5268     4.0087   191.9891 </r>
       <r>    -9.4203     0.1023   192.0000 </r>
       <r>    -9.3139     0.0000   192.0000 </r>
       <r>    -9.2074     0.0000   192.0000 </r>
       <r>    -9.1009     0.0000   192.0000 </r>
       <r>    -8.9945     0.0000   192.0000 </r>
       <r>    -8.8880     0.0000   192.0000 </r>
       <r>    -8.7815     0.0000   192.0000 </r>
       <r>    -8.6750     0.0000   192.0000 </r>
       <r>    -8.5686     0.0000   192.0000 </r>
       <r>    -8.4621     0.0000   192.0000 </r>
       <r>    -8.3556     0.0000   192.0000 </r>
       <r>    -8.2492     0.0000   192.0000 </r>
       <r>    -8.1427     0.0000   192.0000 </r>
       <r>    -8.0362     0.0000   192.0000 </r>
       <r>    -7.9297     0.0000   192.0000 </r>
       <r>    -7.8233     0.0000   192.0000 </r>
       <r>    -7.7168     0.0000   192.0000 </r>
       <r>    -7.6103     0.0000   192.0000 </r>
       <r>    -7.5039     0.0000   192.0000 </r>
       <r>    -7.3974     0.0000   192.0000 </r>
       <r>    -7.2909     0.0000   192.0000 </r>
       <r>    -7.1844     0.0000   192.0000 </r>
       <r>    -7.0780     0.0000   192.0000 </r>
       <r>    -6.9715     0.0000   192.0000 </r>
       <r>    -6.8650     0.0000   192.0000 </r>
       <r>    -6.7585     0.0000   192.0000 </r>
       <r>    -6.6521     0.0000   192.0000 </r>
       <r>    -6.5456     0.0000   192.0000 </r>
       <r>    -6.4391     0.0000   192.0000 </r>
       <r>    -6.3327     0.0000   192.0000 </r>
       <r>    -6.2262     0.0000   192.0000 </r>
       <r>    -6.1197     0.0000   192.0000 </r>
       <r>    -6.0132     0.0557   192.0059 </r>
       <r>    -5.9068     0.4372   192.0525 </r>
       <r>    -5.8003     2.1011   192.2762 </r>
       <r>    -5.6938     3.9031   192.6918 </r>
       <r>    -5.5874     3.1030   193.0221 </r>
       <r>    -5.4809     2.3416   193.2715 </r>
       <r>    -5.3744     5.7134   193.8798 </r>
       <r>    -5.2679     9.6057   194.9025 </r>
       <r>    -5.1615     6.5333   195.5981 </r>
       <r>    -5.0550     4.3183   196.0579 </r>
       <r>    -4.9485     8.0976   196.9201 </r>
       <r>    -4.8421     6.9136   197.6562 </r>
       <r>    -4.7356     9.8650   198.7065 </r>
       <r>    -4.6291     8.3425   199.5947 </r>
       <r>    -4.5226     8.1522   200.4627 </r>
       <r>    -4.4162    12.6632   201.8110 </r>
       <r>    -4.3097    10.7645   202.9571 </r>
       <r>    -4.2032     8.6137   203.8742 </r>
       <r>    -4.0968    14.5693   205.4254 </r>
       <r>    -3.9903     7.8580   206.2621 </r>
       <r>    -3.8838     7.2884   207.0381 </r>
       <r>    -3.7773     5.7184   207.6469 </r>
       <r>    -3.6709     4.7618   208.1539 </r>
       <r>    -3.5644    14.1325   209.6587 </r>
       <r>    -3.4579     8.3443   210.5471 </r>
       <r>    -3.3515    22.3197   212.9235 </r>
       <r>    -3.2450    30.9316   216.2168 </r>
       <r>    -3.1385    37.0255   220.1590 </r>
       <r>    -3.0320    22.1937   222.5220 </r>
       <r>    -2.9256     7.6203   223.3334 </r>
       <r>    -2.8191    17.7139   225.2194 </r>
       <r>    -2.7126    10.7556   226.3646 </r>
       <r>    -2.6061    10.6165   227.4949 </r>
       <r>    -2.4997    15.9803   229.1964 </r>
       <r>    -2.3932    12.5508   230.5327 </r>
       <r>    -2.2867    12.4809   231.8615 </r>
       <r>    -2.1803     3.2445   232.2070 </r>
       <r>    -2.0738     3.2234   232.5502 </r>
       <r>    -1.9673     8.1349   233.4163 </r>
       <r>    -1.8608     7.4119   234.2055 </r>
       <r>    -1.7544     4.6092   234.6962 </r>
       <r>    -1.6479     0.5086   234.7504 </r>
       <r>    -1.5414     3.2123   235.0924 </r>
       <r>    -1.4350    11.9308   236.3627 </r>
       <r>    -1.3285     9.8412   237.4105 </r>
       <r>    -1.2220     3.1481   237.7457 </r>
       <r>    -1.1155     0.9100   237.8426 </r>
       <r>    -1.0091     3.2396   238.1875 </r>
       <r>    -0.9026     2.6189   238.4664 </r>
       <r>    -0.7961     4.9952   238.9982 </r>
       <r>    -0.6897     2.6969   239.2853 </r>
       <r>    -0.5832     1.4920   239.4442 </r>
       <r>    -0.4767     2.8138   239.7438 </r>
       <r>    -0.3702     1.2151   239.8732 </r>
       <r>    -0.2638     0.1056   239.8844 </r>
       <r>    -0.1573     0.6688   239.9556 </r>
       <r>    -0.0508     0.3014   239.9877 </r>
       <r>     0.0556     0.1153   240.0000 </r>
       <r>     0.1621     0.0001   240.0000 </r>
       <r>     0.2686     0.0000   240.0000 </r>
       <r>     0.3751     0.0000   240.0000 </r>
       <r>     0.4815     0.0000   240.0000 </r>
       <r>     0.5880     0.0000   240.0000 </r>
       <r>     0.6945     0.0000   240.0000 </r>
       <r>     0.8009     0.0000   240.0000 </r>
       <r>     0.9074     0.0000   240.0000 </r>
       <r>     1.0139     0.0000   240.0000 </r>
       <r>     1.1204     0.0431   240.0046 </r>
       <r>     1.2268     1.4323   240.1571 </r>
       <r>     1.3333     6.2935   240.8272 </r>
       <r>     1.4398    28.6421   243.8767 </r>
       <r>     1.5462    27.6406   246.8197 </r>
       <r>     1.6527    15.5253   248.4727 </r>
       <r>     1.7592    17.6450   250.3514 </r>
       <r>     1.8657    27.7133   253.3021 </r>
       <r>     1.9721    27.9170   256.2744 </r>
       <r>     2.0786    22.3439   258.6534 </r>
       <r>     2.1851    20.2828   260.8130 </r>
       <r>     2.2916    18.5419   262.7872 </r>
       <r>     2.3980    16.3322   264.5261 </r>
       <r>     2.5045    16.2226   266.2533 </r>
       <r>     2.6110    12.7367   267.6094 </r>
       <r>     2.7174    23.0276   270.0612 </r>
       <r>     2.8239    37.7252   274.0779 </r>
       <r>     2.9304    13.4069   275.5054 </r>
       <r>     3.0369    29.0586   278.5993 </r>
       <r>     3.1433    21.6145   280.9006 </r>
       <r>     3.2498    23.4295   283.3952 </r>
       <r>     3.3563    24.9763   286.0545 </r>
       <r>     3.4627    24.8865   288.7042 </r>
       <r>     3.5692    19.4998   290.7804 </r>
       <r>     3.6757    14.5177   292.3261 </r>
       <r>     3.7822    20.3276   294.4904 </r>
       <r>     3.8886    27.3882   297.4065 </r>
       <r>     3.9951    34.1960   301.0474 </r>
       <r>     4.1016    23.8351   303.5851 </r>
       <r>     4.2080    23.3339   306.0695 </r>
       <r>     4.3145    14.0039   307.5606 </r>
       <r>     4.4210    18.7363   309.5554 </r>
       <r>     4.5275    24.7502   312.1906 </r>
       <r>     4.6339    17.5466   314.0589 </r>
       <r>     4.7404    12.4107   315.3802 </r>
       <r>     4.8469    23.9919   317.9347 </r>
       <r>     4.9533    43.7602   322.5939 </r>
       <r>     5.0598    23.8434   325.1326 </r>
       <r>     5.1663    26.6289   327.9678 </r>
       <r>     5.2728    34.9741   331.6916 </r>
       <r>     5.3792    35.2243   335.4420 </r>
       <r>     5.4857    23.7567   337.9714 </r>
       <r>     5.5922    33.3718   341.5245 </r>
       <r>     5.6986    30.0490   344.7239 </r>
       <r>     5.8051    19.2731   346.7759 </r>
       <r>     5.9116     5.6504   347.3776 </r>
       <r>     6.0181    33.2305   350.9157 </r>
       <r>     6.1245    38.4851   355.0132 </r>
       <r>     6.2310    26.9438   357.8820 </r>
       <r>     6.3375    42.4175   362.3983 </r>
       <r>     6.4440    26.8044   365.2522 </r>
       <r>     6.5504    32.7842   368.7428 </r>
       <r>     6.6569    30.6425   372.0053 </r>
       <r>     6.7634    13.1383   373.4042 </r>
       <r>     6.8698    18.3309   375.3559 </r>
       <r>     6.9763    10.6337   376.4881 </r>
       <r>     7.0828    22.7679   378.9122 </r>
       <r>     7.1893    26.7984   381.7655 </r>
       <r>     7.2957    20.2562   383.9222 </r>
       <r>     7.4022     0.7304   384.0000 </r>
       <r>     7.5087     0.0000   384.0000 </r>
       <r>     7.6151     0.0000   384.0000 </r>
       <r>     7.7216     0.0000   384.0000 </r>
       <r>     7.8281     0.0000   384.0000 </r>
       <r>     7.9346     0.0094   384.0010 </r>
       <r>     8.0410     0.3231   384.0354 </r>
       <r>     8.1475     0.0589   384.0417 </r>
       <r>     8.2540     0.2808   384.0716 </r>
       <r>     8.3604     1.2213   384.2016 </r>
       <r>     8.4669     0.0631   384.2083 </r>
       <r>     8.5734     0.0000   384.2083 </r>
       <r>     8.6799     0.0244   384.2109 </r>
       <r>     8.7863     1.4432   384.3646 </r>
       <r>     8.8928     3.9569   384.7859 </r>
       <r>     8.9993     6.6805   385.4972 </r>
       <r>     9.1057     1.5914   385.6666 </r>
       <r>     9.2122     1.2850   385.8034 </r>
       <r>     9.3187    10.4018   386.9109 </r>
       <r>     9.4252     8.4618   387.8119 </r>
       <r>     9.5316     7.0592   388.5635 </r>
       <r>     9.6381     8.0540   389.4210 </r>
       <r>     9.7446     5.7085   390.0288 </r>
       <r>     9.8510    13.6572   391.4829 </r>
       <r>     9.9575     6.2077   392.1439 </r>
       <r>    10.0640    22.0614   394.4928 </r>
       <r>    10.1705    30.5414   397.7446 </r>
       <r>    10.2769    19.3575   399.8056 </r>
       <r>    10.3834    15.3637   401.4414 </r>
       <r>    10.4899    18.4952   403.4106 </r>
       <r>    10.5963    22.2194   405.7763 </r>
       <r>    10.7028    26.1072   408.5560 </r>
       <r>    10.8093    17.5167   410.4211 </r>
       <r>    10.9158    23.5091   412.9241 </r>
       <r>    11.0222    38.2386   416.9954 </r>
       <r>    11.1287    22.9926   419.4435 </r>
       <r>    11.2352    18.8986   421.4557 </r>
       <r>    11.3417    19.6202   423.5447 </r>
       <r>    11.4481    22.4288   425.9327 </r>
       <r>    11.5546    21.7921   428.2529 </r>
       <r>    11.6611    29.4527   431.3888 </r>
       <r>    11.7675    17.4245   433.2440 </r>
       <r>    11.8740    15.2243   434.8650 </r>
       <r>    11.9805    14.9090   436.4524 </r>
       <r>    12.0870    14.4968   437.9959 </r>
       <r>    12.1934    17.4842   439.8575 </r>
       <r>    12.2999    17.3302   441.7026 </r>
       <r>    12.4064    14.0050   443.1938 </r>
       <r>    12.5128    34.9955   446.9198 </r>
       <r>    12.6193    34.9510   450.6411 </r>
       <r>    12.7258    23.6751   453.1618 </r>
       <r>    12.8323    19.8563   455.2760 </r>
       <r>    12.9387    30.8082   458.5562 </r>
       <r>    13.0452    27.8210   461.5183 </r>
       <r>    13.1517    11.6437   462.7581 </r>
       <r>    13.2581     8.3459   463.6467 </r>
       <r>    13.3646     1.9875   463.8583 </r>
       <r>    13.4711     1.2939   463.9960 </r>
       <r>    13.5776     0.0372   464.0000 </r>
       <r>    13.6840     0.0000   464.0000 </r>
       <r>    13.7905     0.0000   464.0000 </r>
       <r>    13.8970     0.0000   464.0000 </r>
       <r>    14.0034     0.0000   464.0000 </r>
       <r>    14.1099     0.0000   464.0000 </r>
       <r>    14.2164     0.0000   464.0000 </r>
       <r>    14.3229     0.0000   464.0000 </r>
       <r>    14.4293     0.0000   464.0000 </r>
       <r>    14.5358     0.0000   464.0000 </r>
       <r>    14.6423     0.0000   464.0000 </r>
       <r>    14.7487     0.0000   464.0000 </r>
       <r>    14.8552     0.0000   464.0000 </r>
      </set>
     </set>
    </array>
   </total>
  </dos>
 </calculation>
 <structure name="finalpos" >
  <crystal>
   <varray name="basis" >
    <v>       7.60495428       0.00000000       0.00000000 </v>
    <v>       0.00000000       7.60495428       0.00000000 </v>
    <v>       0.00000000       0.00000000      12.00152075 </v>
   </varray>
   <i name="volume">    694.11190791 </i>
   <varray name="rec_basis" >
    <v>       0.13149323       0.00000000       0.00000000 </v>
    <v>       0.00000000       0.13149323       0.00000000 </v>
    <v>       0.00000000       0.00000000       0.08332277 </v>
   </varray>
  </crystal>
  <varray name="positions" >
   <v>       0.24868779       0.24868779       0.85841023 </v>
   <v>       0.75131221       0.24868779       0.85841023 </v>
   <v>       0.24868779       0.75131221       0.85841023 </v>
   <v>       0.75131221       0.75131221       0.85841023 </v>
   <v>       0.00000000       0.00000000       0.64240845 </v>
   <v>       0.50000000       0.00000000       0.64332268 </v>
   <v>       0.00000000       0.50000000       0.64332268 </v>
   <v>       0.50000000       0.50000000       0.64431635 </v>
   <v>       0.00000000       0.00000000       0.35759155 </v>
   <v>       0.50000000       0.00000000       0.35667732 </v>
   <v>       0.00000000       0.50000000       0.35667732 </v>
   <v>       0.50000000       0.50000000       0.35568365 </v>
   <v>       0.24868779       0.24868779       0.14158977 </v>
   <v>       0.75131221       0.24868779       0.14158977 </v>
   <v>       0.24868779       0.75131221       0.14158977 </v>
   <v>       0.75131221       0.75131221       0.14158977 </v>
   <v>       0.50000000       0.00000000       0.00000000 </v>
   <v>       0.00000000       0.50000000       0.00000000 </v>
   <v>       0.50000000       0.50000000       0.00000000 </v>
   <v>       0.25047895       0.25047895       0.50000000 </v>
   <v>       0.74952105       0.25047895       0.50000000 </v>
   <v>       0.25047895       0.74952105       0.50000000 </v>
   <v>       0.74952105       0.74952105       0.50000000 </v>
   <v>       0.00000000       0.24938839       0.75023104 </v>
   <v>       0.50000000       0.24952048       0.75157282 </v>
   <v>       0.00000000       0.75061161       0.75023104 </v>
   <v>       0.50000000       0.75047952       0.75157282 </v>
   <v>       0.24938839       0.00000000       0.75023104 </v>
   <v>       0.75061161       0.00000000       0.75023104 </v>
   <v>       0.24952048       0.50000000       0.75157282 </v>
   <v>       0.75047952       0.50000000       0.75157282 </v>
   <v>       0.24938839       0.00000000       0.24976896 </v>
   <v>       0.75061161       0.00000000       0.24976896 </v>
   <v>       0.24952048       0.50000000       0.24842718 </v>
   <v>       0.75047952       0.50000000       0.24842718 </v>
   <v>       0.00000000       0.24938839       0.24976896 </v>
   <v>       0.50000000       0.24952048       0.24842718 </v>
   <v>       0.00000000       0.75061161       0.24976896 </v>
   <v>       0.50000000       0.75047952       0.24842718 </v>
   <v>       0.00000000       0.00000000       0.00000000 </v>
  </varray>
 </structure>
</modeling>
