unknown system                          
           1
     7.604954    0.000000    0.000000
     0.000000    7.604954    0.000000
     0.000000    0.000000   12.001521
   Bi   Se   O    S 
    16     7    16     1
Direct configuration=     1
   0.24868682  0.24868682  0.85840810
   0.75131318  0.24868682  0.85840810
   0.24868682  0.75131318  0.85840810
   0.75131318  0.75131318  0.85840810
   0.00000000  0.00000000  0.64240460
   0.50000000  0.00000000  0.64332050
   0.00000000  0.50000000  0.64332050
   0.50000000  0.50000000  0.64431545
   0.00000000  0.00000000  0.35759540
   0.50000000  0.00000000  0.35667950
   0.00000000  0.50000000  0.35667950
   0.50000000  0.50000000  0.35568455
   0.24868682  0.24868682  0.14159190
   0.75131318  0.24868682  0.14159190
   0.24868682  0.75131318  0.14159190
   0.75131318  0.75131318  0.14159190
   0.50000000  0.00000000  0.00000000
   0.00000000  0.50000000  0.00000000
   0.50000000  0.50000000  0.00000000
   0.25047395  0.25047395  0.50000000
   0.74952605  0.25047395  0.50000000
   0.25047395  0.74952605  0.50000000
   0.74952605  0.74952605  0.50000000
   0.00000000  0.24938805  0.75023031
   0.50000000  0.24952012  0.75156820
   0.00000000  0.75061195  0.75023031
   0.50000000  0.75047988  0.75156820
   0.24938805  0.00000000  0.75023031
   0.75061195  0.00000000  0.75023031
   0.24952012  0.50000000  0.75156820
   0.75047988  0.50000000  0.75156820
   0.24938805  0.00000000  0.24976969
   0.75061195  0.00000000  0.24976969
   0.24952012  0.50000000  0.24843180
   0.75047988  0.50000000  0.24843180
   0.00000000  0.24938805  0.24976969
   0.50000000  0.24952012  0.24843180
   0.00000000  0.75061195  0.24976969
   0.50000000  0.75047988  0.24843180
   0.00000000  0.00000000  0.00000000
Direct configuration=     2
   0.24868749  0.24868749  0.85840832
   0.75131251  0.24868749  0.85840832
   0.24868749  0.75131251  0.85840832
   0.75131251  0.75131251  0.85840832
   1.00000000  1.00000000  0.64240592
   0.50000000  1.00000000  0.64332076
   1.00000000  0.50000000  0.64332076
   0.50000000  0.50000000  0.64431491
   1.00000000  1.00000000  0.35759408
   0.50000000  1.00000000  0.35667924
   1.00000000  0.50000000  0.35667924
   0.50000000  0.50000000  0.35568509
   0.24868749  0.24868749  0.14159168
   0.75131251  0.24868749  0.14159168
   0.24868749  0.75131251  0.14159168
   0.75131251  0.75131251  0.14159168
   0.50000000  1.00000000  1.00000000
   1.00000000  0.50000000  1.00000000
   0.50000000  0.50000000  1.00000000
   0.25047497  0.25047497  0.50000000
   0.74952503  0.25047497  0.50000000
   0.25047497  0.74952503  0.50000000
   0.74952503  0.74952503  0.50000000
   1.00000000  0.24938851  0.75023016
   0.50000000  0.24952065  0.75156923
   1.00000000  0.75061149  0.75023016
   0.50000000  0.75047935  0.75156923
   0.24938851  1.00000000  0.75023016
   0.75061149  1.00000000  0.75023016
   0.24952065  0.50000000  0.75156923
   0.75047935  0.50000000  0.75156923
   0.24938851  1.00000000  0.24976984
   0.75061149  1.00000000  0.24976984
   0.24952065  0.50000000  0.24843077
   0.75047935  0.50000000  0.24843077
   1.00000000  0.24938851  0.24976984
   0.50000000  0.24952065  0.24843077
   1.00000000  0.75061149  0.24976984
   0.50000000  0.75047935  0.24843077
   1.00000000  1.00000000  1.00000000
Direct configuration=     3
   0.24868835  0.24868835  0.85840860
   0.75131165  0.24868835  0.85840860
   0.24868835  0.75131165  0.85840860
   0.75131165  0.75131165  0.85840860
   0.00000000  0.00000000  0.64240765
   0.50000000  0.00000000  0.64332109
   0.00000000  0.50000000  0.64332109
   0.50000000  0.50000000  0.64431420
   0.00000000  0.00000000  0.35759235
   0.50000000  0.00000000  0.35667891
   0.00000000  0.50000000  0.35667891
   0.50000000  0.50000000  0.35568580
   0.24868835  0.24868835  0.14159140
   0.75131165  0.24868835  0.14159140
   0.24868835  0.75131165  0.14159140
   0.75131165  0.75131165  0.14159140
   0.50000000  0.00000000  0.00000000
   0.00000000  0.50000000  0.00000000
   0.50000000  0.50000000  0.00000000
   0.25047630  0.25047630  0.50000000
   0.74952370  0.25047630  0.50000000
   0.25047630  0.74952370  0.50000000
   0.74952370  0.74952370  0.50000000
   0.00000000  0.24938910  0.75022997
   0.50000000  0.24952135  0.75157057
   0.00000000  0.75061090  0.75022997
   0.50000000  0.75047865  0.75157057
   0.24938910  0.00000000  0.75022997
   0.75061090  0.00000000  0.75022997
   0.24952135  0.50000000  0.75157057
   0.75047865  0.50000000  0.75157057
   0.24938910  0.00000000  0.24977003
   0.75061090  0.00000000  0.24977003
   0.24952135  0.50000000  0.24842943
   0.75047865  0.50000000  0.24842943
   0.00000000  0.24938910  0.24977003
   0.50000000  0.24952135  0.24842943
   0.00000000  0.75061090  0.24977003
   0.50000000  0.75047865  0.24842943
   0.00000000  0.00000000  0.00000000
Direct configuration=     4
   0.24868846  0.24868846  0.85840864
   0.75131154  0.24868846  0.85840864
   0.24868846  0.75131154  0.85840864
   0.75131154  0.75131154  0.85840864
   1.00000000  1.00000000  0.64240787
   0.50000000  1.00000000  0.64332114
   1.00000000  0.50000000  0.64332114
   0.50000000  0.50000000  0.64431411
   1.00000000  1.00000000  0.35759213
   0.50000000  1.00000000  0.35667886
   1.00000000  0.50000000  0.35667886
   0.50000000  0.50000000  0.35568589
   0.24868846  0.24868846  0.14159136
   0.75131154  0.24868846  0.14159136
   0.24868846  0.75131154  0.14159136
   0.75131154  0.75131154  0.14159136
   0.50000000  1.00000000  1.00000000
   1.00000000  0.50000000  1.00000000
   0.50000000  0.50000000  1.00000000
   0.25047647  0.25047647  0.50000000
   0.74952353  0.25047647  0.50000000
   0.25047647  0.74952353  0.50000000
   0.74952353  0.74952353  0.50000000
   1.00000000  0.24938918  0.75022994
   0.50000000  0.24952144  0.75157074
   1.00000000  0.75061082  0.75022994
   0.50000000  0.75047856  0.75157074
   0.24938918  1.00000000  0.75022994
   0.75061082  1.00000000  0.75022994
   0.24952144  0.50000000  0.75157074
   0.75047856  0.50000000  0.75157074
   0.24938918  1.00000000  0.24977006
   0.75061082  1.00000000  0.24977006
   0.24952144  0.50000000  0.24842926
   0.75047856  0.50000000  0.24842926
   1.00000000  0.24938918  0.24977006
   0.50000000  0.24952144  0.24842926
   1.00000000  0.75061082  0.24977006
   0.50000000  0.75047856  0.24842926
   1.00000000  1.00000000  1.00000000
Direct configuration=     5
   0.24868810  0.24868810  0.85840922
   0.75131190  0.24868810  0.85840922
   0.24868810  0.75131190  0.85840922
   0.75131190  0.75131190  0.85840922
   0.00000000  0.00000000  0.64240806
   0.50000000  0.00000000  0.64332161
   0.00000000  0.50000000  0.64332161
   0.50000000  0.50000000  0.64431461
   0.00000000  0.00000000  0.35759194
   0.50000000  0.00000000  0.35667839
   0.00000000  0.50000000  0.35667839
   0.50000000  0.50000000  0.35568539
   0.24868810  0.24868810  0.14159078
   0.75131190  0.24868810  0.14159078
   0.24868810  0.75131190  0.14159078
   0.75131190  0.75131190  0.14159078
   0.50000000  0.00000000  0.00000000
   0.00000000  0.50000000  0.00000000
   0.50000000  0.50000000  0.00000000
   0.25047753  0.25047753  0.50000000
   0.74952247  0.25047753  0.50000000
   0.25047753  0.74952247  0.50000000
   0.74952247  0.74952247  0.50000000
   0.00000000  0.24938931  0.75023014
   0.50000000  0.24952140  0.75157112
   0.00000000  0.75061069  0.75023014
   0.50000000  0.75047860  0.75157112
   0.24938931  0.00000000  0.75023014
   0.75061069  0.00000000  0.75023014
   0.24952140  0.50000000  0.75157112
   0.75047860  0.50000000  0.75157112
   0.24938931  0.00000000  0.24976986
   0.75061069  0.00000000  0.24976986
   0.24952140  0.50000000  0.24842888
   0.75047860  0.50000000  0.24842888
   0.00000000  0.24938931  0.24976986
   0.50000000  0.24952140  0.24842888
   0.00000000  0.75061069  0.24976986
   0.50000000  0.75047860  0.24842888
   0.00000000  0.00000000  0.00000000
Direct configuration=     6
   0.24868794  0.24868794  0.85840947
   0.75131206  0.24868794  0.85840947
   0.24868794  0.75131206  0.85840947
   0.75131206  0.75131206  0.85840947
   1.00000000  1.00000000  0.64240814
   0.50000000  1.00000000  0.64332181
   1.00000000  0.50000000  0.64332181
   0.50000000  0.50000000  0.64431483
   1.00000000  1.00000000  0.35759186
   0.50000000  1.00000000  0.35667819
   1.00000000  0.50000000  0.35667819
   0.50000000  0.50000000  0.35568517
   0.24868794  0.24868794  0.14159053
   0.75131206  0.24868794  0.14159053
   0.24868794  0.75131206  0.14159053
   0.75131206  0.75131206  0.14159053
   0.50000000  1.00000000  0.00000000
   1.00000000  0.50000000  0.00000000
   0.50000000  0.50000000  0.00000000
   0.25047799  0.25047799  0.50000000
   0.74952201  0.25047799  0.50000000
   0.25047799  0.74952201  0.50000000
   0.74952201  0.74952201  0.50000000
   1.00000000  0.24938936  0.75023023
   0.50000000  0.24952139  0.75157128
   1.00000000  0.75061064  0.75023023
   0.50000000  0.75047861  0.75157128
   0.24938936  1.00000000  0.75023023
   0.75061064  1.00000000  0.75023023
   0.24952139  0.50000000  0.75157128
   0.75047861  0.50000000  0.75157128
   0.24938936  1.00000000  0.24976977
   0.75061064  1.00000000  0.24976977
   0.24952139  0.50000000  0.24842872
   0.75047861  0.50000000  0.24842872
   1.00000000  0.24938936  0.24976977
   0.50000000  0.24952139  0.24842872
   1.00000000  0.75061064  0.24976977
   0.50000000  0.75047861  0.24842872
   1.00000000  1.00000000  0.00000000
Direct configuration=     7
   0.24868800  0.24868800  0.85840960
   0.75131200  0.24868800  0.85840960
   0.24868800  0.75131200  0.85840960
   0.75131200  0.75131200  0.85840960
   0.00000000  0.00000000  0.64240806
   0.50000000  0.00000000  0.64332206
   0.00000000  0.50000000  0.64332206
   0.50000000  0.50000000  0.64431540
   0.00000000  0.00000000  0.35759194
   0.50000000  0.00000000  0.35667794
   0.00000000  0.50000000  0.35667794
   0.50000000  0.50000000  0.35568460
   0.24868800  0.24868800  0.14159040
   0.75131200  0.24868800  0.14159040
   0.24868800  0.75131200  0.14159040
   0.75131200  0.75131200  0.14159040
   0.50000000  0.00000000  0.00000000
   0.00000000  0.50000000  0.00000000
   0.50000000  0.50000000  0.00000000
   0.25047894  0.25047894  0.50000000
   0.74952106  0.25047894  0.50000000
   0.25047894  0.74952106  0.50000000
   0.74952106  0.74952106  0.50000000
   0.00000000  0.24938899  0.75023077
   0.50000000  0.24952098  0.75157198
   0.00000000  0.75061101  0.75023077
   0.50000000  0.75047902  0.75157198
   0.24938899  0.00000000  0.75023077
   0.75061101  0.00000000  0.75023077
   0.24952098  0.50000000  0.75157198
   0.75047902  0.50000000  0.75157198
   0.24938899  0.00000000  0.24976923
   0.75061101  0.00000000  0.24976923
   0.24952098  0.50000000  0.24842802
   0.75047902  0.50000000  0.24842802
   0.00000000  0.24938899  0.24976923
   0.50000000  0.24952098  0.24842802
   0.00000000  0.75061101  0.24976923
   0.50000000  0.75047902  0.24842802
   0.00000000  0.00000000  0.00000000
Direct configuration=     8
   0.24868802  0.24868802  0.85840963
   0.75131198  0.24868802  0.85840963
   0.24868802  0.75131198  0.85840963
   0.75131198  0.75131198  0.85840963
   0.00000000  1.00000000  0.64240804
   0.50000000  1.00000000  0.64332212
   0.00000000  0.50000000  0.64332212
   0.50000000  0.50000000  0.64431554
   0.00000000  1.00000000  0.35759196
   0.50000000  1.00000000  0.35667788
   0.00000000  0.50000000  0.35667788
   0.50000000  0.50000000  0.35568446
   0.24868802  0.24868802  0.14159037
   0.75131198  0.24868802  0.14159037
   0.24868802  0.75131198  0.14159037
   0.75131198  0.75131198  0.14159037
   0.50000000  1.00000000  0.00000000
   0.00000000  0.50000000  0.00000000
   0.50000000  0.50000000  0.00000000
   0.25047918  0.25047918  0.50000000
   0.74952082  0.25047918  0.50000000
   0.25047918  0.74952082  0.50000000
   0.74952082  0.74952082  0.50000000
   0.00000000  0.24938889  0.75023090
   0.50000000  0.24952087  0.75157215
   0.00000000  0.75061111  0.75023090
   0.50000000  0.75047913  0.75157215
   0.24938889  1.00000000  0.75023090
   0.75061111  1.00000000  0.75023090
   0.24952087  0.50000000  0.75157215
   0.75047913  0.50000000  0.75157215
   0.24938889  1.00000000  0.24976910
   0.75061111  1.00000000  0.24976910
   0.24952087  0.50000000  0.24842785
   0.75047913  0.50000000  0.24842785
   0.00000000  0.24938889  0.24976910
   0.50000000  0.24952087  0.24842785
   0.00000000  0.75061111  0.24976910
   0.50000000  0.75047913  0.24842785
   0.00000000  1.00000000  0.00000000
Direct configuration=     9
   0.24868801  0.24868801  0.85841014
   0.75131199  0.24868801  0.85841014
   0.24868801  0.75131199  0.85841014
   0.75131199  0.75131199  0.85841014
   0.00000000  0.00000000  0.64240848
   0.50000000  0.00000000  0.64332265
   0.00000000  0.50000000  0.64332265
   0.50000000  0.50000000  0.64431633
   0.00000000  0.00000000  0.35759152
   0.50000000  0.00000000  0.35667735
   0.00000000  0.50000000  0.35667735
   0.50000000  0.50000000  0.35568367
   0.24868801  0.24868801  0.14158986
   0.75131199  0.24868801  0.14158986
   0.24868801  0.75131199  0.14158986
   0.75131199  0.75131199  0.14158986
   0.50000000  0.00000000  0.00000000
   0.00000000  0.50000000  0.00000000
   0.50000000  0.50000000  0.00000000
   0.25047977  0.25047977  0.50000000
   0.74952023  0.25047977  0.50000000
   0.25047977  0.74952023  0.50000000
   0.74952023  0.74952023  0.50000000
   0.00000000  0.24938822  0.75023115
   0.50000000  0.24952031  0.75157271
   0.00000000  0.75061178  0.75023115
   0.50000000  0.75047969  0.75157271
   0.24938822  0.00000000  0.75023115
   0.75061178  0.00000000  0.75023115
   0.24952031  0.50000000  0.75157271
   0.75047969  0.50000000  0.75157271
   0.24938822  0.00000000  0.24976885
   0.75061178  0.00000000  0.24976885
   0.24952031  0.50000000  0.24842729
   0.75047969  0.50000000  0.24842729
   0.00000000  0.24938822  0.24976885
   0.50000000  0.24952031  0.24842729
   0.00000000  0.75061178  0.24976885
   0.50000000  0.75047969  0.24842729
   0.00000000  0.00000000  0.00000000
Direct configuration=    10
   0.24868801  0.24868801  0.85841000
   0.75131199  0.24868801  0.85841000
   0.24868801  0.75131199  0.85841000
   0.75131199  0.75131199  0.85841000
   0.00000000  0.00000000  0.64240836
   0.50000000  0.00000000  0.64332250
   0.00000000  0.50000000  0.64332250
   0.50000000  0.50000000  0.64431611
   0.00000000  0.00000000  0.35759164
   0.50000000  0.00000000  0.35667750
   0.00000000  0.50000000  0.35667750
   0.50000000  0.50000000  0.35568389
   0.24868801  0.24868801  0.14159000
   0.75131199  0.24868801  0.14159000
   0.24868801  0.75131199  0.14159000
   0.75131199  0.75131199  0.14159000
   0.50000000  0.00000000  0.00000000
   0.00000000  0.50000000  0.00000000
   0.50000000  0.50000000  0.00000000
   0.25047961  0.25047961  0.50000000
   0.74952039  0.25047961  0.50000000
   0.25047961  0.74952039  0.50000000
   0.74952039  0.74952039  0.50000000
   0.00000000  0.24938841  0.75023108
   0.50000000  0.24952047  0.75157255
   0.00000000  0.75061159  0.75023108
   0.50000000  0.75047953  0.75157255
   0.24938841  0.00000000  0.75023108
   0.75061159  0.00000000  0.75023108
   0.24952047  0.50000000  0.75157255
   0.75047953  0.50000000  0.75157255
   0.24938841  0.00000000  0.24976892
   0.75061159  0.00000000  0.24976892
   0.24952047  0.50000000  0.24842745
   0.75047953  0.50000000  0.24842745
   0.00000000  0.24938841  0.24976892
   0.50000000  0.24952047  0.24842745
   0.00000000  0.75061159  0.24976892
   0.50000000  0.75047953  0.24842745
   0.00000000  0.00000000  0.00000000
Direct configuration=    11
   0.24868801  0.24868801  0.85841009
   0.75131199  0.24868801  0.85841009
   0.24868801  0.75131199  0.85841009
   0.75131199  0.75131199  0.85841009
   0.00000000  0.00000000  0.64240844
   0.50000000  0.00000000  0.64332260
   0.00000000  0.50000000  0.64332260
   0.50000000  0.50000000  0.64431625
   0.00000000  0.00000000  0.35759156
   0.50000000  0.00000000  0.35667740
   0.00000000  0.50000000  0.35667740
   0.50000000  0.50000000  0.35568375
   0.24868801  0.24868801  0.14158991
   0.75131199  0.24868801  0.14158991
   0.24868801  0.75131199  0.14158991
   0.75131199  0.75131199  0.14158991
   0.50000000  0.00000000  0.00000000
   0.00000000  0.50000000  0.00000000
   0.50000000  0.50000000  0.00000000
   0.25047972  0.25047972  0.50000000
   0.74952028  0.25047972  0.50000000
   0.25047972  0.74952028  0.50000000
   0.74952028  0.74952028  0.50000000
   0.00000000  0.24938829  0.75023113
   0.50000000  0.24952036  0.75157265
   0.00000000  0.75061171  0.75023113
   0.50000000  0.75047964  0.75157265
   0.24938829  0.00000000  0.75023113
   0.75061171  0.00000000  0.75023113
   0.24952036  0.50000000  0.75157265
   0.75047964  0.50000000  0.75157265
   0.24938829  0.00000000  0.24976887
   0.75061171  0.00000000  0.24976887
   0.24952036  0.50000000  0.24842735
   0.75047964  0.50000000  0.24842735
   0.00000000  0.24938829  0.24976887
   0.50000000  0.24952036  0.24842735
   0.00000000  0.75061171  0.24976887
   0.50000000  0.75047964  0.24842735
   0.00000000  0.00000000  0.00000000
Direct configuration=    12
   0.24868801  0.24868801  0.85841005
   0.75131199  0.24868801  0.85841005
   0.24868801  0.75131199  0.85841005
   0.75131199  0.75131199  0.85841005
   0.00000000  0.00000000  0.64240840
   0.50000000  0.00000000  0.64332255
   0.00000000  0.50000000  0.64332255
   0.50000000  0.50000000  0.64431618
   0.00000000  0.00000000  0.35759160
   0.50000000  0.00000000  0.35667745
   0.00000000  0.50000000  0.35667745
   0.50000000  0.50000000  0.35568382
   0.24868801  0.24868801  0.14158995
   0.75131199  0.24868801  0.14158995
   0.24868801  0.75131199  0.14158995
   0.75131199  0.75131199  0.14158995
   0.50000000  0.00000000  0.00000000
   0.00000000  0.50000000  0.00000000
   0.50000000  0.50000000  0.00000000
   0.25047966  0.25047966  0.50000000
   0.74952034  0.25047966  0.50000000
   0.25047966  0.74952034  0.50000000
   0.74952034  0.74952034  0.50000000
   0.00000000  0.24938835  0.75023111
   0.50000000  0.24952041  0.75157260
   0.00000000  0.75061165  0.75023111
   0.50000000  0.75047959  0.75157260
   0.24938835  0.00000000  0.75023111
   0.75061165  0.00000000  0.75023111
   0.24952041  0.50000000  0.75157260
   0.75047959  0.50000000  0.75157260
   0.24938835  0.00000000  0.24976889
   0.75061165  0.00000000  0.24976889
   0.24952041  0.50000000  0.24842740
   0.75047959  0.50000000  0.24842740
   0.00000000  0.24938835  0.24976889
   0.50000000  0.24952041  0.24842740
   0.00000000  0.75061165  0.24976889
   0.50000000  0.75047959  0.24842740
   0.00000000  0.00000000  0.00000000
Direct configuration=    13
   0.24868801  0.24868801  0.85841007
   0.75131199  0.24868801  0.85841007
   0.24868801  0.75131199  0.85841007
   0.75131199  0.75131199  0.85841007
   0.00000000  0.00000000  0.64240842
   0.50000000  0.00000000  0.64332258
   0.00000000  0.50000000  0.64332258
   0.50000000  0.50000000  0.64431622
   0.00000000  0.00000000  0.35759158
   0.50000000  0.00000000  0.35667742
   0.00000000  0.50000000  0.35667742
   0.50000000  0.50000000  0.35568378
   0.24868801  0.24868801  0.14158993
   0.75131199  0.24868801  0.14158993
   0.24868801  0.75131199  0.14158993
   0.75131199  0.75131199  0.14158993
   0.50000000  0.00000000  0.00000000
   0.00000000  0.50000000  0.00000000
   0.50000000  0.50000000  0.00000000
   0.25047969  0.25047969  0.50000000
   0.74952031  0.25047969  0.50000000
   0.25047969  0.74952031  0.50000000
   0.74952031  0.74952031  0.50000000
   0.00000000  0.24938832  0.75023112
   0.50000000  0.24952039  0.75157263
   0.00000000  0.75061168  0.75023112
   0.50000000  0.75047961  0.75157263
   0.24938832  0.00000000  0.75023112
   0.75061168  0.00000000  0.75023112
   0.24952039  0.50000000  0.75157263
   0.75047961  0.50000000  0.75157263
   0.24938832  0.00000000  0.24976888
   0.75061168  0.00000000  0.24976888
   0.24952039  0.50000000  0.24842737
   0.75047961  0.50000000  0.24842737
   0.00000000  0.24938832  0.24976888
   0.50000000  0.24952039  0.24842737
   0.00000000  0.75061168  0.24976888
   0.50000000  0.75047961  0.24842737
   0.00000000  0.00000000  0.00000000
Direct configuration=    14
   0.24868801  0.24868801  0.85841005
   0.75131199  0.24868801  0.85841005
   0.24868801  0.75131199  0.85841005
   0.75131199  0.75131199  0.85841005
   0.00000000  0.00000000  0.64240840
   0.50000000  0.00000000  0.64332256
   0.00000000  0.50000000  0.64332256
   0.50000000  0.50000000  0.64431619
   0.00000000  0.00000000  0.35759160
   0.50000000  0.00000000  0.35667744
   0.00000000  0.50000000  0.35667744
   0.50000000  0.50000000  0.35568381
   0.24868801  0.24868801  0.14158995
   0.75131199  0.24868801  0.14158995
   0.24868801  0.75131199  0.14158995
   0.75131199  0.75131199  0.14158995
   0.50000000  0.00000000  0.00000000
   0.00000000  0.50000000  0.00000000
   0.50000000  0.50000000  0.00000000
   0.25047967  0.25047967  0.50000000
   0.74952033  0.25047967  0.50000000
   0.25047967  0.74952033  0.50000000
   0.74952033  0.74952033  0.50000000
   0.00000000  0.24938834  0.75023111
   0.50000000  0.24952041  0.75157261
   0.00000000  0.75061166  0.75023111
   0.50000000  0.75047959  0.75157261
   0.24938834  0.00000000  0.75023111
   0.75061166  0.00000000  0.75023111
   0.24952041  0.50000000  0.75157261
   0.75047959  0.50000000  0.75157261
   0.24938834  0.00000000  0.24976889
   0.75061166  0.00000000  0.24976889
   0.24952041  0.50000000  0.24842739
   0.75047959  0.50000000  0.24842739
   0.00000000  0.24938834  0.24976889
   0.50000000  0.24952041  0.24842739
   0.00000000  0.75061166  0.24976889
   0.50000000  0.75047959  0.24842739
   0.00000000  0.00000000  0.00000000
Direct configuration=    15
   0.24868801  0.24868801  0.85841006
   0.75131199  0.24868801  0.85841006
   0.24868801  0.75131199  0.85841006
   0.75131199  0.75131199  0.85841006
   0.00000000  0.00000000  0.64240841
   0.50000000  0.00000000  0.64332257
   0.00000000  0.50000000  0.64332257
   0.50000000  0.50000000  0.64431621
   0.00000000  0.00000000  0.35759159
   0.50000000  0.00000000  0.35667743
   0.00000000  0.50000000  0.35667743
   0.50000000  0.50000000  0.35568379
   0.24868801  0.24868801  0.14158994
   0.75131199  0.24868801  0.14158994
   0.24868801  0.75131199  0.14158994
   0.75131199  0.75131199  0.14158994
   0.50000000  0.00000000  0.00000000
   0.00000000  0.50000000  0.00000000
   0.50000000  0.50000000  0.00000000
   0.25047969  0.25047969  0.50000000
   0.74952031  0.25047969  0.50000000
   0.25047969  0.74952031  0.50000000
   0.74952031  0.74952031  0.50000000
   0.00000000  0.24938832  0.75023112
   0.50000000  0.24952039  0.75157262
   0.00000000  0.75061168  0.75023112
   0.50000000  0.75047961  0.75157262
   0.24938832  0.00000000  0.75023112
   0.75061168  0.00000000  0.75023112
   0.24952039  0.50000000  0.75157262
   0.75047961  0.50000000  0.75157262
   0.24938832  0.00000000  0.24976888
   0.75061168  0.00000000  0.24976888
   0.24952039  0.50000000  0.24842738
   0.75047961  0.50000000  0.24842738
   0.00000000  0.24938832  0.24976888
   0.50000000  0.24952039  0.24842738
   0.00000000  0.75061168  0.24976888
   0.50000000  0.75047961  0.24842738
   0.00000000  0.00000000  0.00000000
Direct configuration=    16
   0.24868782  0.24868782  0.85841017
   0.75131218  0.24868782  0.85841017
   0.24868782  0.75131218  0.85841017
   0.75131218  0.75131218  0.85841017
   0.00000000  0.00000000  0.64240850
   0.50000000  0.00000000  0.64332259
   0.00000000  0.50000000  0.64332259
   0.50000000  0.50000000  0.64431612
   0.00000000  0.00000000  0.35759150
   0.50000000  0.00000000  0.35667741
   0.00000000  0.50000000  0.35667741
   0.50000000  0.50000000  0.35568388
   0.24868782  0.24868782  0.14158983
   0.75131218  0.24868782  0.14158983
   0.24868782  0.75131218  0.14158983
   0.75131218  0.75131218  0.14158983
   0.50000000  0.00000000  0.00000000
   0.00000000  0.50000000  0.00000000
   0.50000000  0.50000000  0.00000000
   0.25047937  0.25047937  0.50000000
   0.74952063  0.25047937  0.50000000
   0.25047937  0.74952063  0.50000000
   0.74952063  0.74952063  0.50000000
   0.00000000  0.24938838  0.75023096
   0.50000000  0.24952046  0.75157261
   0.00000000  0.75061162  0.75023096
   0.50000000  0.75047954  0.75157261
   0.24938838  0.00000000  0.75023096
   0.75061162  0.00000000  0.75023096
   0.24952046  0.50000000  0.75157261
   0.75047954  0.50000000  0.75157261
   0.24938838  0.00000000  0.24976904
   0.75061162  0.00000000  0.24976904
   0.24952046  0.50000000  0.24842739
   0.75047954  0.50000000  0.24842739
   0.00000000  0.24938838  0.24976904
   0.50000000  0.24952046  0.24842739
   0.00000000  0.75061162  0.24976904
   0.50000000  0.75047954  0.24842739
   0.00000000  0.00000000  0.00000000
Direct configuration=    17
   0.24868787  0.24868787  0.85841015
   0.75131213  0.24868787  0.85841015
   0.24868787  0.75131213  0.85841015
   0.75131213  0.75131213  0.85841015
   0.00000000  0.00000000  0.64240848
   0.50000000  0.00000000  0.64332259
   0.00000000  0.50000000  0.64332259
   0.50000000  0.50000000  0.64431614
   0.00000000  0.00000000  0.35759152
   0.50000000  0.00000000  0.35667741
   0.00000000  0.50000000  0.35667741
   0.50000000  0.50000000  0.35568386
   0.24868787  0.24868787  0.14158985
   0.75131213  0.24868787  0.14158985
   0.24868787  0.75131213  0.14158985
   0.75131213  0.75131213  0.14158985
   0.50000000  0.00000000  0.00000000
   0.00000000  0.50000000  0.00000000
   0.50000000  0.50000000  0.00000000
   0.25047945  0.25047945  0.50000000
   0.74952055  0.25047945  0.50000000
   0.25047945  0.74952055  0.50000000
   0.74952055  0.74952055  0.50000000
   0.00000000  0.24938837  0.75023100
   0.50000000  0.24952045  0.75157261
   0.00000000  0.75061163  0.75023100
   0.50000000  0.75047955  0.75157261
   0.24938837  0.00000000  0.75023100
   0.75061163  0.00000000  0.75023100
   0.24952045  0.50000000  0.75157261
   0.75047955  0.50000000  0.75157261
   0.24938837  0.00000000  0.24976900
   0.75061163  0.00000000  0.24976900
   0.24952045  0.50000000  0.24842739
   0.75047955  0.50000000  0.24842739
   0.00000000  0.24938837  0.24976900
   0.50000000  0.24952045  0.24842739
   0.00000000  0.75061163  0.24976900
   0.50000000  0.75047955  0.24842739
   0.00000000  0.00000000  0.00000000
Direct configuration=    18
   0.24868784  0.24868784  0.85841016
   0.75131216  0.24868784  0.85841016
   0.24868784  0.75131216  0.85841016
   0.75131216  0.75131216  0.85841016
   0.00000000  0.00000000  0.64240849
   0.50000000  0.00000000  0.64332259
   0.00000000  0.50000000  0.64332259
   0.50000000  0.50000000  0.64431613
   0.00000000  0.00000000  0.35759151
   0.50000000  0.00000000  0.35667741
   0.00000000  0.50000000  0.35667741
   0.50000000  0.50000000  0.35568387
   0.24868784  0.24868784  0.14158984
   0.75131216  0.24868784  0.14158984
   0.24868784  0.75131216  0.14158984
   0.75131216  0.75131216  0.14158984
   0.50000000  0.00000000  0.00000000
   0.00000000  0.50000000  0.00000000
   0.50000000  0.50000000  0.00000000
   0.25047941  0.25047941  0.50000000
   0.74952059  0.25047941  0.50000000
   0.25047941  0.74952059  0.50000000
   0.74952059  0.74952059  0.50000000
   0.00000000  0.24938838  0.75023098
   0.50000000  0.24952046  0.75157261
   0.00000000  0.75061162  0.75023098
   0.50000000  0.75047954  0.75157261
   0.24938838  0.00000000  0.75023098
   0.75061162  0.00000000  0.75023098
   0.24952046  0.50000000  0.75157261
   0.75047954  0.50000000  0.75157261
   0.24938838  0.00000000  0.24976902
   0.75061162  0.00000000  0.24976902
   0.24952046  0.50000000  0.24842739
   0.75047954  0.50000000  0.24842739
   0.00000000  0.24938838  0.24976902
   0.50000000  0.24952046  0.24842739
   0.00000000  0.75061162  0.24976902
   0.50000000  0.75047954  0.24842739
   0.00000000  0.00000000  0.00000000
Direct configuration=    19
   0.24868784  0.24868784  0.85841016
   0.75131216  0.24868784  0.85841016
   0.24868784  0.75131216  0.85841016
   0.75131216  0.75131216  0.85841016
   0.00000000  0.00000000  0.64240845
   0.50000000  0.00000000  0.64332263
   0.00000000  0.50000000  0.64332263
   0.50000000  0.50000000  0.64431625
   0.00000000  0.00000000  0.35759155
   0.50000000  0.00000000  0.35667737
   0.00000000  0.50000000  0.35667737
   0.50000000  0.50000000  0.35568375
   0.24868784  0.24868784  0.14158984
   0.75131216  0.24868784  0.14158984
   0.24868784  0.75131216  0.14158984
   0.75131216  0.75131216  0.14158984
   0.50000000  0.00000000  0.00000000
   0.00000000  0.50000000  0.00000000
   0.50000000  0.50000000  0.00000000
   0.25047911  0.25047911  0.50000000
   0.74952089  0.25047911  0.50000000
   0.25047911  0.74952089  0.50000000
   0.74952089  0.74952089  0.50000000
   0.00000000  0.24938838  0.75023095
   0.50000000  0.24952047  0.75157271
   0.00000000  0.75061162  0.75023095
   0.50000000  0.75047953  0.75157271
   0.24938838  0.00000000  0.75023095
   0.75061162  0.00000000  0.75023095
   0.24952047  0.50000000  0.75157271
   0.75047953  0.50000000  0.75157271
   0.24938838  0.00000000  0.24976905
   0.75061162  0.00000000  0.24976905
   0.24952047  0.50000000  0.24842729
   0.75047953  0.50000000  0.24842729
   0.00000000  0.24938838  0.24976905
   0.50000000  0.24952047  0.24842729
   0.00000000  0.75061162  0.24976905
   0.50000000  0.75047953  0.24842729
   0.00000000  0.00000000  0.00000000
Direct configuration=    20
   0.24868784  0.24868784  0.85841016
   0.75131216  0.24868784  0.85841016
   0.24868784  0.75131216  0.85841016
   0.75131216  0.75131216  0.85841016
   0.00000000  0.00000000  0.64240844
   0.50000000  0.00000000  0.64332263
   0.00000000  0.50000000  0.64332263
   0.50000000  0.50000000  0.64431627
   0.00000000  0.00000000  0.35759156