  40  40   0   0
  0.2077619E+02  0.8075364E-09  0.8075364E-09  0.1274388E-08  0.5000000E-15
  1.000000000000000E-004
  CAR 
 unknown system                          
     11.47112506    -19.21500797  301      5.59079910      1.00000000
    -19.215  0.0000E+00  0.0000E+00
    -19.113  0.0000E+00  0.0000E+00
    -19.010  0.0000E+00  0.0000E+00
    -18.908  0.0000E+00  0.0000E+00
    -18.806  0.0000E+00  0.0000E+00
    -18.704  0.0000E+00  0.0000E+00
    -18.601  0.0000E+00  0.0000E+00
    -18.499  0.0000E+00  0.0000E+00
    -18.397  0.0000E+00  0.0000E+00
    -18.294  0.0000E+00  0.0000E+00
    -18.192  0.0000E+00  0.0000E+00
    -18.090  0.1747E-14  0.1787E-15
    -17.988  0.3032E-06  0.3101E-07
    -17.885  0.2089E-01  0.2137E-02
    -17.783  0.1464E+01  0.1519E+00
    -17.681  0.5302E+01  0.6942E+00
    -17.578  0.8550E+01  0.1569E+01
    -17.476  0.3057E+00  0.1600E+01
    -17.374  0.1934E-04  0.1600E+01
    -17.272  0.5471E-12  0.1600E+01
    -17.169  0.0000E+00  0.1600E+01
    -17.067  0.0000E+00  0.1600E+01
    -16.965  0.0000E+00  0.1600E+01
    -16.862  0.0000E+00  0.1600E+01
    -16.760  0.0000E+00  0.1600E+01
    -16.658  0.0000E+00  0.1600E+01
    -16.556  0.0000E+00  0.1600E+01
    -16.453  0.0000E+00  0.1600E+01
    -16.351  0.0000E+00  0.1600E+01
    -16.249  0.0000E+00  0.1600E+01
    -16.146  0.0000E+00  0.1600E+01
    -16.044  0.0000E+00  0.1600E+01
    -15.942  0.0000E+00  0.1600E+01
    -15.840  0.0000E+00  0.1600E+01
    -15.737  0.0000E+00  0.1600E+01
    -15.635  0.0000E+00  0.1600E+01
    -15.533  0.0000E+00  0.1600E+01
    -15.430  0.0000E+00  0.1600E+01
    -15.328  0.0000E+00  0.1600E+01
    -15.226  0.0000E+00  0.1600E+01
    -15.124  0.0000E+00  0.1600E+01
    -15.021  0.0000E+00  0.1600E+01
    -14.919  0.0000E+00  0.1600E+01
    -14.817  0.0000E+00  0.1600E+01
    -14.714  0.0000E+00  0.1600E+01
    -14.612  0.0000E+00  0.1600E+01
    -14.510  0.0000E+00  0.1600E+01
    -14.408  0.0000E+00  0.1600E+01
    -14.305  0.0000E+00  0.1600E+01
    -14.203  0.0000E+00  0.1600E+01
    -14.101  0.0000E+00  0.1600E+01
    -13.998  0.0000E+00  0.1600E+01
    -13.896  0.3970E-12  0.1600E+01
    -13.794  0.2137E-05  0.1600E+01
    -13.692  0.4730E-02  0.1600E+01
    -13.589  0.5228E-01  0.1606E+01
    -13.487  0.1178E+00  0.1618E+01
    -13.385  0.5105E-01  0.1623E+01
    -13.282  0.1273E+00  0.1636E+01
    -13.180  0.1569E+00  0.1652E+01
    -13.078  0.2345E-01  0.1655E+01
    -12.975  0.1241E+00  0.1667E+01
    -12.873  0.2182E+00  0.1690E+01
    -12.771  0.8693E-01  0.1698E+01
    -12.669  0.1354E+00  0.1712E+01
    -12.566  0.8251E-01  0.1721E+01
    -12.464  0.3354E+00  0.1755E+01
    -12.362  0.2200E+00  0.1778E+01
    -12.259  0.1961E+00  0.1798E+01
    -12.157  0.3730E+00  0.1836E+01
    -12.055  0.2143E+00  0.1858E+01
    -11.953  0.9240E-01  0.1867E+01
    -11.850  0.2564E+00  0.1893E+01
    -11.748  0.9941E-01  0.1904E+01
    -11.646  0.1432E+00  0.1918E+01
    -11.543  0.1756E-01  0.1920E+01
    -11.441  0.4324E-04  0.1920E+01
    -11.339  0.7530E-10  0.1920E+01
    -11.237  0.0000E+00  0.1920E+01
    -11.134  0.0000E+00  0.1920E+01
    -11.032  0.0000E+00  0.1920E+01
    -10.930  0.0000E+00  0.1920E+01
    -10.827  0.0000E+00  0.1920E+01
    -10.725  0.0000E+00  0.1920E+01
    -10.623  0.0000E+00  0.1920E+01
    -10.521  0.0000E+00  0.1920E+01
    -10.418  0.0000E+00  0.1920E+01
    -10.316  0.0000E+00  0.1920E+01
    -10.214  0.0000E+00  0.1920E+01
    -10.111  0.0000E+00  0.1920E+01
    -10.009  0.0000E+00  0.1920E+01
     -9.907  0.0000E+00  0.1920E+01
     -9.805  0.0000E+00  0.1920E+01
     -9.702  0.0000E+00  0.1920E+01
     -9.600  0.0000E+00  0.1920E+01
     -9.498  0.0000E+00  0.1920E+01
     -9.395  0.0000E+00  0.1920E+01
     -9.293  0.0000E+00  0.1920E+01
     -9.191  0.0000E+00  0.1920E+01
     -9.089  0.0000E+00  0.1920E+01
     -8.986  0.0000E+00  0.1920E+01
     -8.884  0.0000E+00  0.1920E+01
     -8.782  0.0000E+00  0.1920E+01
     -8.679  0.0000E+00  0.1920E+01
     -8.577  0.0000E+00  0.1920E+01
     -8.475  0.0000E+00  0.1920E+01
     -8.373  0.0000E+00  0.1920E+01
     -8.270  0.0000E+00  0.1920E+01
     -8.168  0.0000E+00  0.1920E+01
     -8.066  0.0000E+00  0.1920E+01
     -7.963  0.0000E+00  0.1920E+01
     -7.861  0.0000E+00  0.1920E+01
     -7.759  0.0000E+00  0.1920E+01
     -7.657  0.0000E+00  0.1920E+01
     -7.554  0.0000E+00  0.1920E+01
     -7.452  0.0000E+00  0.1920E+01
     -7.350  0.0000E+00  0.1920E+01
     -7.247  0.0000E+00  0.1920E+01
     -7.145  0.0000E+00  0.1920E+01
     -7.043  0.2526E-15  0.1920E+01
     -6.941  0.1264E-07  0.1920E+01
     -6.838  0.2121E-03  0.1920E+01
     -6.736  0.6088E-02  0.1921E+01
     -6.634  0.3236E-01  0.1924E+01
     -6.531  0.5313E-01  0.1929E+01
     -6.429  0.4029E-01  0.1934E+01
     -6.327  0.1161E+00  0.1945E+01
     -6.225  0.1026E+00  0.1956E+01
     -6.122  0.9394E-01  0.1965E+01
     -6.020  0.1098E+00  0.1977E+01
     -5.918  0.1496E+00  0.1992E+01
     -5.815  0.1554E+00  0.2008E+01
     -5.713  0.1755E+00  0.2026E+01
     -5.611  0.1563E+00  0.2042E+01
     -5.509  0.2347E+00  0.2066E+01
     -5.406  0.1559E+00  0.2082E+01
     -5.304  0.1667E+00  0.2099E+01
     -5.202  0.4121E+00  0.2141E+01
     -5.099  0.2417E+00  0.2166E+01
     -4.997  0.5204E+00  0.2219E+01
     -4.895  0.2737E+00  0.2247E+01
     -4.793  0.8939E-01  0.2256E+01
     -4.690  0.2213E+00  0.2279E+01
     -4.588  0.2162E+00  0.2301E+01
     -4.486  0.6383E-01  0.2307E+01
     -4.383  0.1092E+00  0.2319E+01
     -4.281  0.1237E+00  0.2331E+01
     -4.179  0.1129E+00  0.2343E+01
     -4.077  0.4608E-01  0.2347E+01
     -3.974  0.1836E-03  0.2348E+01
     -3.872  0.2867E-01  0.2350E+01
     -3.770  0.1585E+00  0.2367E+01
     -3.667  0.8168E-01  0.2375E+01
     -3.565  0.2974E-01  0.2378E+01
     -3.463  0.3126E-01  0.2381E+01
     -3.361  0.3993E-01  0.2385E+01
     -3.258  0.6694E-01  0.2392E+01
     -3.156  0.2517E-01  0.2395E+01
     -3.054  0.3463E-01  0.2398E+01
     -2.951  0.7473E-02  0.2399E+01
     -2.849  0.7192E-02  0.2400E+01
     -2.747  0.2079E-02  0.2400E+01
     -2.644  0.7838E-05  0.2400E+01
     -2.542  0.1491E-10  0.2400E+01
     -2.440  0.0000E+00  0.2400E+01
     -2.338  0.0000E+00  0.2400E+01
     -2.235  0.0000E+00  0.2400E+01
     -2.133  0.0000E+00  0.2400E+01
     -2.031  0.0000E+00  0.2400E+01
     -1.928  0.0000E+00  0.2400E+01
     -1.826  0.0000E+00  0.2400E+01
     -1.724  0.0000E+00  0.2400E+01
     -1.622  0.0000E+00  0.2400E+01
     -1.519  0.0000E+00  0.2400E+01
     -1.417  0.0000E+00  0.2400E+01
     -1.315  0.0000E+00  0.2400E+01
     -1.212  0.0000E+00  0.2400E+01
     -1.110  0.0000E+00  0.2400E+01
     -1.008  0.0000E+00  0.2400E+01
     -0.906  0.0000E+00  0.2400E+01
     -0.803  0.0000E+00  0.2400E+01
     -0.701  0.0000E+00  0.2400E+01
     -0.599  0.0000E+00  0.2400E+01
     -0.496  0.3720E-15  0.2400E+01
     -0.394  0.2293E-07  0.2400E+01
     -0.292  0.5482E-03  0.2400E+01
     -0.190  0.2566E-01  0.2403E+01
     -0.087  0.9118E-01  0.2412E+01
      0.015  0.2697E+00  0.2440E+01
      0.117  0.3224E+00  0.2473E+01
      0.220  0.4047E+00  0.2514E+01
      0.322  0.2375E+00  0.2538E+01
      0.424  0.1683E+00  0.2555E+01
      0.526  0.2440E+00  0.2580E+01
      0.629  0.2385E+00  0.2605E+01
      0.731  0.1485E+00  0.2620E+01
      0.833  0.2013E+00  0.2641E+01
      0.936  0.3106E+00  0.2672E+01
      1.038  0.1838E+00  0.2691E+01
      1.140  0.1440E+00  0.2706E+01
      1.242  0.9780E-01  0.2716E+01
      1.345  0.2531E+00  0.2742E+01
      1.447  0.4149E+00  0.2784E+01
      1.549  0.1900E+00  0.2804E+01
      1.652  0.2501E+00  0.2829E+01
      1.754  0.2374E+00  0.2854E+01
      1.856  0.4144E+00  0.2896E+01
      1.958  0.4245E+00  0.2939E+01
      2.061  0.4348E+00  0.2984E+01
      2.163  0.2145E+00  0.3006E+01
      2.265  0.2097E+00  0.3027E+01
      2.368  0.3372E+00  0.3062E+01
      2.470  0.2546E+00  0.3088E+01
      2.572  0.1275E+00  0.3101E+01
      2.674  0.2129E+00  0.3123E+01
      2.777  0.4034E+00  0.3164E+01
      2.879  0.4350E+00  0.3208E+01
      2.981  0.2378E+00  0.3233E+01
      3.084  0.3585E+00  0.3269E+01
      3.186  0.3078E+00  0.3301E+01
      3.288  0.2779E+00  0.3329E+01
      3.390  0.1155E+00  0.3341E+01
      3.493  0.2164E+00  0.3363E+01
      3.595  0.1485E+00  0.3378E+01
      3.697  0.7161E-01  0.3386E+01
      3.800  0.1199E+00  0.3398E+01
      3.902  0.1623E+00  0.3415E+01
      4.004  0.1456E+00  0.3429E+01
      4.106  0.1601E+00  0.3446E+01
      4.209  0.1857E+00  0.3465E+01
      4.311  0.2249E+00  0.3488E+01
      4.413  0.5875E+00  0.3548E+01
      4.516  0.5783E+00  0.3607E+01
      4.618  0.5692E+00  0.3665E+01
      4.720  0.4164E+00  0.3708E+01
      4.822  0.3056E+00  0.3739E+01
      4.925  0.1318E+00  0.3753E+01
      5.027  0.3013E+00  0.3783E+01
      5.129  0.2819E+00  0.3812E+01
      5.232  0.1053E+00  0.3823E+01
      5.334  0.4927E-01  0.3828E+01
      5.436  0.5811E-01  0.3834E+01
      5.538  0.4912E-01  0.3839E+01
      5.641  0.1188E-01  0.3840E+01
      5.743  0.2245E-02  0.3841E+01
      5.845  0.6763E-02  0.3841E+01
      5.948  0.4193E-03  0.3841E+01
      6.050  0.7021E-02  0.3842E+01
      6.152  0.6090E-02  0.3843E+01
      6.254  0.6830E-02  0.3843E+01
      6.357  0.1161E-02  0.3843E+01
      6.459  0.1763E-01  0.3845E+01
      6.561  0.4251E-01  0.3850E+01
      6.664  0.3913E-01  0.3854E+01
      6.766  0.5646E-01  0.3859E+01
      6.868  0.6404E-01  0.3866E+01
      6.970  0.7532E-01  0.3874E+01
      7.073  0.1229E+00  0.3886E+01
      7.175  0.1038E+00  0.3897E+01
      7.277  0.9692E-01  0.3907E+01
      7.380  0.5727E-01  0.3913E+01
      7.482  0.1426E+00  0.3927E+01
      7.584  0.3300E+00  0.3961E+01
      7.687  0.2445E+00  0.3986E+01
      7.789  0.2243E+00  0.4009E+01
      7.891  0.2949E+00  0.4039E+01
      7.993  0.3005E+00  0.4070E+01
      8.096  0.1501E+00  0.4085E+01
      8.198  0.1959E+00  0.4105E+01
      8.300  0.2099E+00  0.4127E+01
      8.403  0.2293E+00  0.4150E+01
      8.505  0.2982E+00  0.4181E+01
      8.607  0.3232E+00  0.4214E+01
      8.709  0.2662E+00  0.4241E+01
      8.812  0.2907E+00  0.4271E+01
      8.914  0.3536E+00  0.4307E+01
      9.016  0.2887E+00  0.4336E+01
      9.119  0.2596E+00  0.4363E+01
      9.221  0.2793E+00  0.4391E+01
      9.323  0.2404E+00  0.4416E+01
      9.425  0.2277E+00  0.4439E+01
      9.528  0.1538E+00  0.4455E+01
      9.630  0.1778E+00  0.4473E+01
      9.732  0.4434E+00  0.4519E+01
      9.835  0.5228E+00  0.4572E+01
      9.937  0.3444E+00  0.4607E+01
     10.039  0.2529E+00  0.4633E+01
     10.141  0.6572E-01  0.4640E+01
     10.244  0.1165E-02  0.4640E+01
     10.346  0.3606E-07  0.4640E+01
     10.448  0.3907E-15  0.4640E+01
     10.551  0.0000E+00  0.4640E+01
     10.653  0.0000E+00  0.4640E+01
     10.755  0.0000E+00  0.4640E+01
     10.857  0.0000E+00  0.4640E+01
     10.960  0.0000E+00  0.4640E+01
     11.062  0.0000E+00  0.4640E+01
     11.164  0.0000E+00  0.4640E+01
     11.267  0.0000E+00  0.4640E+01
     11.369  0.0000E+00  0.4640E+01
     11.471  0.0000E+00  0.4640E+01
