       N       E                     dE             d eps       ncg     rms          rms(c)
DAV:   1     0.538805233664E+04    0.53881E+04   -0.17691E+05  5568   0.191E+03
DAV:   2     0.873919466835E+03   -0.45141E+04   -0.43806E+04  5624   0.545E+02
DAV:   3    -0.124326710353E+03   -0.99825E+03   -0.93424E+03  6216   0.253E+02
DAV:   4    -0.237997637846E+03   -0.11367E+03   -0.11011E+03  6552   0.776E+01
DAV:   5    -0.243550620086E+03   -0.55530E+01   -0.54859E+01  6776   0.166E+01    0.344E+01
DAV:   6    -0.208368234358E+03    0.35182E+02   -0.15901E+02  7616   0.483E+01    0.150E+01
DAV:   7    -0.207465827701E+03    0.90241E+00   -0.28782E+01  6176   0.117E+01    0.791E+00
DAV:   8    -0.207622753233E+03   -0.15693E+00   -0.57667E+00  7512   0.475E+00    0.330E+00
DAV:   9    -0.207571860494E+03    0.50893E-01   -0.58874E-01  7224   0.234E+00    0.155E+00
DAV:  10    -0.207554626401E+03    0.17234E-01   -0.20094E-01  7048   0.135E+00    0.419E-01
DAV:  11    -0.207557294516E+03   -0.26681E-02   -0.22894E-02  7584   0.310E-01    0.330E-01
DAV:  12    -0.207558840390E+03   -0.15459E-02   -0.71151E-03  7120   0.182E-01    0.160E-01
DAV:  13    -0.207558775695E+03    0.64696E-04   -0.58535E-04  6592   0.850E-02    0.906E-02
DAV:  14    -0.207558718711E+03    0.56983E-04   -0.36516E-04  6640   0.369E-02    0.392E-02
DAV:  15    -0.207558707661E+03    0.11051E-04   -0.55491E-05  8288   0.154E-02    0.178E-02
DAV:  16    -0.207558704459E+03    0.32023E-05   -0.68579E-06  6616   0.700E-03    0.800E-03
DAV:  17    -0.207558703535E+03    0.92340E-06   -0.71473E-06  7448   0.536E-03    0.306E-03
DAV:  18    -0.207558703758E+03   -0.22315E-06   -0.56311E-07  6240   0.201E-03    0.110E-03
DAV:  19    -0.207558703905E+03   -0.14679E-06   -0.64602E-08  5696   0.683E-04    0.701E-04
DAV:  20    -0.207558703916E+03   -0.10418E-07   -0.14017E-08  4264   0.290E-04    0.656E-04
DAV:  21    -0.207558703903E+03    0.12389E-07   -0.63440E-09  3448   0.238E-04    0.317E-04
DAV:  22    -0.207558703899E+03    0.44884E-08   -0.58492E-09  3408   0.211E-04
   1 F= -.20755870E+03 E0= -.20755817E+03  d E =-.207559E+03
       N       E                     dE             d eps       ncg     rms          rms(c)
DAV:   1    -0.207558703897E+03    0.61909E-08   -0.86859E-08  5408   0.633E-04    0.707E-05
DAV:   2    -0.207558703899E+03   -0.21701E-08   -0.26035E-09  3360   0.185E-04    0.273E-05
DAV:   3    -0.207558703897E+03    0.19045E-08   -0.67182E-10  3360   0.157E-04    0.148E-05
DAV:   4    -0.207558703895E+03    0.24011E-08   -0.34985E-10  3360   0.692E-05    0.140E-05
DAV:   5    -0.207558703895E+03   -0.54570E-09   -0.14863E-10  3360   0.605E-05
   2 F= -.20755870E+03 E0= -.20755817E+03  d E =0.329237E-08
       N       E                     dE             d eps       ncg     rms          rms(c)
DAV:   1    -0.207558703895E+03   -0.16826E-09   -0.37925E-09  3352   0.135E-04    0.139E-05
DAV:   2    -0.207558703895E+03    0.21009E-09   -0.46336E-10  3296   0.108E-04    0.105E-05
DAV:   3    -0.207558703894E+03    0.51386E-09   -0.15962E-10  3248   0.537E-05    0.380E-06
DAV:   4    -0.207558703894E+03    0.45475E-10   -0.76746E-11  3224   0.341E-05    0.659E-06
DAV:   5    -0.207558703894E+03    0.32833E-09   -0.37218E-11  3216   0.276E-05
   3 F= -.20755870E+03 E0= -.20755817E+03  d E =0.476757E-08
       N       E                     dE             d eps       ncg     rms          rms(c)
DAV:   1    -0.207558703894E+03    0.23374E-09   -0.15030E-08  3640   0.258E-04    0.198E-05
DAV:   2    -0.207558703894E+03    0.30741E-09   -0.10956E-09  3200   0.105E-04    0.728E-06
DAV:   3    -0.207558703894E+03   -0.15461E-09   -0.25130E-10  3184   0.516E-05    0.653E-06
DAV:   4    -0.207558703894E+03   -0.41291E-09   -0.69989E-11  3168   0.349E-05    0.527E-06
DAV:   5    -0.207558703894E+03   -0.23647E-10   -0.34126E-11  3120   0.214E-05
   4 F= -.20755870E+03 E0= -.20755817E+03  d E =0.438922E-08
       N       E                     dE             d eps       ncg     rms          rms(c)
DAV:   1    -0.207558703894E+03   -0.93678E-10   -0.61648E-08  4920   0.511E-04    0.348E-05
DAV:   2    -0.207558703895E+03   -0.30286E-09   -0.14710E-09  3120   0.143E-04    0.157E-05
DAV:   3    -0.207558703895E+03   -0.34925E-09   -0.40271E-10  3120   0.942E-05    0.112E-05
DAV:   4    -0.207558703893E+03    0.16007E-08   -0.13069E-10  3112   0.553E-05    0.868E-06
DAV:   5    -0.207558703894E+03   -0.69849E-09   -0.78413E-11  3096   0.361E-05
   5 F= -.20755870E+03 E0= -.20755817E+03  d E =0.456930E-08
       N       E                     dE             d eps       ncg     rms          rms(c)
DAV:   1    -0.207558703895E+03   -0.15125E-08   -0.36568E-08  4304   0.412E-04    0.426E-05
DAV:   2    -0.207558703895E+03    0.73669E-10   -0.17364E-09  3096   0.140E-04    0.165E-05
DAV:   3    -0.207558703895E+03    0.36198E-09   -0.34240E-10  3096   0.911E-05    0.103E-05
DAV:   4    -0.207558703895E+03   -0.75670E-09   -0.13921E-10  3096   0.486E-05    0.103E-05
DAV:   5    -0.207558703895E+03    0.72578E-09   -0.70296E-11  3080   0.353E-05
   6 F= -.20755870E+03 E0= -.20755817E+03  d E =-.409273E-09
       N       E                     dE             d eps       ncg     rms          rms(c)
DAV:   1    -0.207558703894E+03    0.79763E-09   -0.26880E-07  5520   0.110E-03    0.105E-04
DAV:   2    -0.207558703895E+03   -0.28103E-09   -0.83185E-09  3280   0.257E-04    0.335E-05
DAV:   3    -0.207558703895E+03   -0.39563E-09   -0.11014E-09  3072   0.145E-04    0.258E-05
DAV:   4    -0.207558703895E+03    0.84583E-10   -0.25553E-10  3056   0.878E-05    0.217E-05
DAV:   5    -0.207558703894E+03    0.81127E-09   -0.19452E-10  3072   0.451E-05
   7 F= -.20755870E+03 E0= -.20755817E+03  d E =-.118234E-09
       N       E                     dE             d eps       ncg     rms          rms(c)
DAV:   1    -0.207558703892E+03    0.27976E-08   -0.10698E-06  5720   0.219E-03    0.205E-04
DAV:   2    -0.207558703895E+03   -0.31723E-08   -0.35232E-08  4984   0.533E-04    0.854E-05
DAV:   3    -0.207558703896E+03   -0.57116E-09   -0.23835E-09  3064   0.189E-04    0.574E-05
DAV:   4    -0.207558703896E+03    0.32287E-09   -0.67539E-10  3024   0.153E-04    0.403E-05
DAV:   5    -0.207558703895E+03    0.92678E-09   -0.60556E-10  3024   0.822E-05
   8 F= -.20755870E+03 E0= -.20755817E+03  d E =-.625732E-09
       N       E                     dE             d eps       ncg     rms          rms(c)
DAV:   1    -0.207558703894E+03    0.20418E-08   -0.84619E-08  4792   0.627E-04    0.663E-05
DAV:   2    -0.207558703893E+03    0.22010E-09   -0.32999E-09  2992   0.183E-04    0.195E-05
DAV:   3    -0.207558703894E+03   -0.12551E-09   -0.61205E-10  3000   0.103E-04    0.165E-05
DAV:   4    -0.207558703894E+03   -0.59299E-09   -0.15507E-10  2984   0.598E-05    0.138E-05
DAV:   5    -0.207558703894E+03   -0.31832E-10   -0.89702E-11  3000   0.323E-05
   9 F= -.20755870E+03 E0= -.20755817E+03  d E =-.409273E-10
       N       E                     dE             d eps       ncg     rms          rms(c)
DAV:   1    -0.207558703894E+03    0.46202E-09   -0.32104E-08  4184   0.385E-04    0.418E-05
DAV:   2    -0.207558703895E+03   -0.89767E-09   -0.14749E-09  3000   0.128E-04    0.153E-05
DAV:   3    -0.207558703894E+03    0.53205E-09   -0.27025E-10  2992   0.805E-05    0.961E-06
DAV:   4    -0.207558703894E+03   -0.12005E-09   -0.96715E-11  2976   0.425E-05    0.859E-06
DAV:   5    -0.207558703894E+03   -0.14552E-09   -0.56519E-11  2976   0.313E-05
  10 F= -.20755870E+03 E0= -.20755817E+03  d E =-.178261E-09
       N       E                     dE             d eps       ncg     rms          rms(c)
DAV:   1    -0.207558703894E+03    0.54206E-09   -0.76282E-09  3032   0.190E-04    0.234E-05
DAV:   2    -0.207558703894E+03   -0.43110E-09   -0.59374E-10  2976   0.864E-05    0.863E-06
DAV:   3    -0.207558703894E+03    0.36380E-09   -0.10045E-10  2976   0.462E-05    0.514E-06
DAV:   4    -0.207558703894E+03   -0.39472E-09   -0.34930E-11  2976   0.251E-05    0.514E-06
DAV:   5    -0.207558703893E+03    0.87311E-09   -0.13672E-11  2976   0.172E-05
  11 F= -.20755870E+03 E0= -.20755817E+03  d E =0.920409E-09
       N       E                     dE             d eps       ncg     rms          rms(c)
DAV:   1    -0.207558703895E+03   -0.63937E-09   -0.33743E-09  2976   0.126E-04    0.152E-05
DAV:   2    -0.207558703894E+03    0.39745E-09   -0.26676E-10  2976   0.515E-05    0.526E-06
DAV:   3    -0.207558703895E+03   -0.37835E-09   -0.45283E-11  2976   0.306E-05    0.352E-06
DAV:   4    -0.207558703894E+03    0.65120E-09   -0.19995E-11  2976   0.161E-05    0.332E-06
DAV:   5    -0.207558703894E+03   -0.28922E-09   -0.91203E-12  2976   0.101E-05
  12 F= -.20755870E+03 E0= -.20755817E+03  d E =-.211003E-09
       N       E                     dE             d eps       ncg     rms          rms(c)
DAV:   1    -0.207558703894E+03   -0.15461E-10   -0.47533E-08  5096   0.464E-04    0.437E-05
DAV:   2    -0.207558703894E+03   -0.15007E-09   -0.14360E-09  2976   0.110E-04    0.123E-05
DAV:   3    -0.207558703895E+03   -0.44656E-09   -0.24292E-10  2976   0.771E-05    0.962E-06
DAV:   4    -0.207558703894E+03    0.64847E-09   -0.84252E-11  2976   0.389E-05    0.891E-06
DAV:   5    -0.207558703895E+03   -0.75488E-09   -0.40497E-11  2976   0.291E-05
  13 F= -.20755870E+03 E0= -.20755817E+03  d E =-.429281E-09
       N       E                     dE             d eps       ncg     rms          rms(c)
DAV:   1    -0.207558703893E+03    0.71304E-09   -0.42793E-07  5504   0.139E-03    0.130E-04
DAV:   2    -0.207558703895E+03   -0.16416E-08   -0.12677E-08  3328   0.322E-04    0.396E-05
DAV:   3    -0.207558703895E+03    0.26102E-09   -0.18411E-09  2968   0.218E-04    0.291E-05
DAV:   4    -0.207558703896E+03   -0.86584E-09   -0.59444E-10  2952   0.110E-04    0.260E-05
DAV:   5    -0.207558703895E+03    0.51477E-09   -0.31271E-10  2952   0.843E-05
  14 F= -.20755870E+03 E0= -.20755817E+03  d E =-.693035E-09
       N       E                     dE             d eps       ncg     rms          rms(c)
DAV:   1    -0.207558703895E+03    0.66211E-09   -0.15214E-08  3448   0.283E-04    0.292E-05
DAV:   2    -0.207558703896E+03   -0.64210E-09   -0.99856E-10  2952   0.138E-04    0.136E-05
DAV:   3    -0.207558703895E+03    0.46566E-09   -0.21174E-10  2952   0.718E-05    0.735E-06
DAV:   4    -0.207558703895E+03    0.13097E-09   -0.95311E-11  2952   0.397E-05    0.910E-06
DAV:   5    -0.207558703896E+03   -0.76034E-09   -0.44079E-11  2952   0.337E-05
  15 F= -.20755870E+03 E0= -.20755817E+03  d E =-.658474E-09
       N       E                     dE             d eps       ncg     rms          rms(c)
DAV:   1    -0.207558703896E+03   -0.70031E-09   -0.97026E-09  3088   0.221E-04    0.211E-05
DAV:   2    -0.207558703895E+03    0.39108E-09   -0.68115E-10  2952   0.834E-05    0.856E-06
DAV:   3    -0.207558703895E+03   -0.19827E-09   -0.12258E-10  2936   0.546E-05    0.594E-06
DAV:   4    -0.207558703896E+03   -0.21282E-09   -0.46226E-11  2928   0.275E-05    0.588E-06
DAV:   5    -0.207558703896E+03   -0.27558E-09   -0.25375E-11  2928   0.212E-05
  16 F= -.20755870E+03 E0= -.20755817E+03  d E =-.894033E-09
       N       E                     dE             d eps       ncg     rms          rms(c)
DAV:   1    -0.207558703895E+03    0.30650E-09   -0.39050E-08  4160   0.434E-04    0.381E-05
DAV:   2    -0.207558703896E+03   -0.25375E-09   -0.17641E-09  2928   0.124E-04    0.149E-05
DAV:   3    -0.207558703895E+03    0.26193E-09   -0.33307E-10  2928   0.837E-05    0.118E-05
DAV:   4    -0.207558703896E+03   -0.20555E-09   -0.10496E-10  2928   0.472E-05    0.100E-05
DAV:   5    -0.207558703895E+03    0.27012E-09   -0.69862E-11  2928   0.295E-05
  17 F= -.20755870E+03 E0= -.20755817E+03  d E =-.239197E-09
       N       E                     dE             d eps       ncg     rms          rms(c)
DAV:   1    -0.207558703896E+03   -0.55388E-09   -0.13082E-08  3352   0.255E-04    0.256E-05
DAV:   2    -0.207558703895E+03    0.62300E-09   -0.79766E-10  2928   0.990E-05    0.111E-05
DAV:   3    -0.207558703896E+03   -0.18372E-09   -0.13382E-10  2928   0.621E-05    0.663E-06
DAV:   4    -0.207558703896E+03   -0.12005E-09   -0.68336E-11  2928   0.284E-05    0.724E-06
DAV:   5    -0.207558703896E+03   -0.27285E-09   -0.26541E-11  2928   0.288E-05
  18 F= -.20755870E+03 E0= -.20755817E+03  d E =-.777618E-09
       N       E                     dE             d eps       ncg     rms          rms(c)
DAV:   1    -0.207558703896E+03   -0.75488E-10   -0.12531E-08  3296   0.247E-04    0.229E-05
DAV:   2    -0.207558703896E+03   -0.13642E-10   -0.72864E-10  2928   0.836E-05    0.896E-06
DAV:   3    -0.207558703896E+03   -0.30650E-09   -0.13532E-10  2928   0.515E-05    0.671E-06
DAV:   4    -0.207558703896E+03    0.49749E-09   -0.36295E-11  2928   0.294E-05    0.557E-06
DAV:   5    -0.207558703896E+03   -0.31105E-09   -0.26436E-11  2928   0.167E-05
  19 F= -.20755870E+03 E0= -.20755817E+03  d E =-.713953E-09
       N       E                     dE             d eps       ncg     rms          rms(c)
DAV:   1    -0.207558703896E+03   -0.44565E-09   -0.50725E-08  4568   0.490E-04    0.426E-05
DAV:   2    -0.207558703896E+03   -0.33378E-09   -0.20207E-09  2944   0.124E-04    0.139E-05
DAV:   3    -0.207558703896E+03    0.81764E-09   -0.28273E-10  2928   0.657E-05    0.114E-05
DAV:   4    -0.207558703897E+03   -0.90131E-09   -0.93427E-11  2928   0.442E-05    0.949E-06
DAV:   5    -0.207558703897E+03   -0.13824E-09   -0.36225E-11  2928   0.269E-05
  20 F= -.20755870E+03 E0= -.20755817E+03  d E =-.140426E-08
       N       E                     dE             d eps       ncg     rms          rms(c)
DAV:   1    -0.207558703896E+03    0.67212E-09   -0.26186E-09  2928   0.117E-04    0.120E-05
DAV:   2    -0.207558703895E+03    0.40291E-09   -0.21522E-10  2928   0.668E-05    0.450E-06
DAV:   3    -0.207558703896E+03   -0.44838E-09   -0.53155E-11  2928   0.313E-05    0.322E-06
DAV:   4    -0.207558703895E+03    0.42110E-09   -0.22546E-11  2928   0.185E-05    0.354E-06
DAV:   5    -0.207558703896E+03   -0.18281E-09   -0.14036E-11  2928   0.127E-05
  21 F= -.20755870E+03 E0= -.20755817E+03  d E =-.401087E-09
       N       E                     dE             d eps       ncg     rms          rms(c)
DAV:   1    -0.207558703896E+03   -0.83219E-09   -0.45668E-09  2928   0.150E-04    0.139E-05
DAV:   2    -0.207558703896E+03    0.60572E-09   -0.44636E-10  2928   0.722E-05    0.731E-06
DAV:   3    -0.207558703897E+03   -0.87675E-09   -0.10358E-10  2928   0.471E-05    0.418E-06
DAV:   4    -0.207558703896E+03    0.51659E-09   -0.39765E-11  2928   0.267E-05    0.348E-06
DAV:   5    -0.207558703896E+03    0.29468E-09   -0.22009E-11  2928   0.181E-05
  22 F= -.20755870E+03 E0= -.20755817E+03  d E =-.109139E-09
