 vasp.6.4.3 19Mar24 (build Apr 09 2025 20:43:19) complex                        
  
 executed on             LinuxIFC date 2025.04.15  13:20:45
 running   36 mpi-ranks, on    1 nodes
 distrk:  each k-point on   36 cores,    1 groups
 distr:  one band on NCORE=   9 cores,    4 groups


--------------------------------------------------------------------------------------------------------


 INCAR:
   PREC = Accurate
   IBRION = 2
   NSW = 100
   NELMIN = 5
   ISIF = 2
   ENCUT = 520
   EDIFF = 1.000000e-08
   EDIFFG = -1.000000e-5
   ISMEAR = 0
   SIGMA = 0.05
   IALGO = 38
   LREAL = .FALSE.
   ADDGRID = .TRUE.
   LWAVE = .FALSE.
   LCHARG = .FALSE.
   NCORE = 9

 POTCAR:    PAW_PBE Bi_d 06Sep2000                
 POTCAR:    PAW_PBE Se 06Sep2000                  
 POTCAR:    PAW_PBE O 08Apr2002                   
 POTCAR:    PAW_PBE S 06Sep2000                   
 POTCAR:    PAW_PBE Bi_d 06Sep2000                
   SHA256 =  572e7eac3f9482ff025db24f2820381a7a3856069fa85913dc654793f618f69a Bi_d/POTCAR           
   COPYR  = (c) Copyright 06Sep2000 Georg Kresse                                                    
   COPYR  = This file is part of the software VASP. Any use, copying, and all other rights are regul
   COPYR  = If you do not have a valid VASP license, you may not use, copy or distribute this file. 
   VRHFIN =Bi:                                                                                      
   LEXCH  = PE                                                                                      
   EATOM  =  1959.2045 eV,  143.9975 Ry                                                             
                                                                                                    
   TITEL  = PAW_PBE Bi_d 06Sep2000                                                                  
   LULTRA =        F    use ultrasoft PP ?                                                          
   IUNSCR =        1    unscreen: 0-lin 1-nonlin 2-no                                               
   RPACOR =    2.200    partial core radius                                                         
   POMASS =  208.980; ZVAL   =   15.000    mass and valenz                                          
   RCORE  =    2.500    outmost cutoff radius                                                       
   RWIGS  =    3.090; RWIGS  =    1.635    wigner-seitz radius (au A)                               
   ENMAX  =  242.839; ENMIN  =  182.129 eV                                                          
   ICORE  =        3    local potential                                                             
   LCOR   =        T    correct aug charges                                                         
   LPAW   =        T    paw PP                                                                      
   EAUG   =  442.899                                                                                
   DEXC   =    0.000                                                                                
   RMAX   =    2.551    core radius for proj-oper                                                   
   RAUG   =    1.300    factor for augmentation sphere                                              
   RDEP   =    2.650    radius for radial grids                                                     
   RDEPT  =    2.039    core radius for aug-charge                                                  
                                                                                                    
   Atomic configuration                                                                             
   16 entries                                                                                       
     n  l   j            E        occ.                                                              
     1  0  0.50    -90639.6581   2.0000                                                             
     2  0  0.50    -16282.4666   2.0000                                                             
     2  1  1.50    -13922.8286   6.0000                                                             
     3  0  0.50     -3930.4763   2.0000                                                             
     3  1  1.50     -3256.7013   6.0000                                                             
     3  2  2.50     -2581.6168  10.0000                                                             
     4  0  0.50      -902.2614   2.0000                                                             
     4  1  1.50      -681.5915   6.0000                                                             
     4  2  2.50      -429.8249  10.0000                                                             
     4  3  3.50      -152.6004  14.0000                                                             
     5  0  0.50      -157.7156   2.0000                                                             
     5  1  1.50       -95.8054   6.0000                                                             
     5  2  2.50       -27.0806  10.0000                                                             
     6  0  0.50       -14.4732   2.0000                                                             
     6  1  1.50        -4.5702   3.0000                                                             
     5  3  2.50        -2.7212   0.0000                                                             
   Description                                                                                      
     l       E           TYP  RCUT    TYP  RCUT                                                     
     2    -27.0805982     23  2.500                                                                 
     2     -1.3605826     23  2.500                                                                 
     0    -14.4732271     23  2.500                                                                 
     0      6.8029130     23  2.500                                                                 
     1     -4.5701651     23  2.500                                                                 
     1     13.6058260     23  2.500                                                                 
     3     -1.3605826      7  2.500                                                                 
  local pseudopotential read in
  partial core-charges read in
  partial kinetic energy density read in
  atomic valenz-charges read in
  non local Contribution for L=           2  read in
    real space projection operators read in
  non local Contribution for L=           2  read in
    real space projection operators read in
  non local Contribution for L=           0  read in
    real space projection operators read in
  non local Contribution for L=           0  read in
    real space projection operators read in
  non local Contribution for L=           1  read in
    real space projection operators read in
  non local Contribution for L=           1  read in
    real space projection operators read in
    PAW grid and wavefunctions read in
 
   number of l-projection  operators is LMAX  =           6
   number of lm-projection operators is LMMAX =          18
 
 POTCAR:    PAW_PBE Se 06Sep2000                  
   SHA256 =  eabb916e6b4c819dc065ce039373bc328651da483898f08fb9e49c498452bf12 Se/POTCAR             
   COPYR  = (c) Copyright 06Sep2000 Georg Kresse                                                    
   COPYR  = This file is part of the software VASP. Any use, copying, and all other rights are regul
   COPYR  = If you do not have a valid VASP license, you may not use, copy or distribute this file. 
   VRHFIN =Se: s2p4                                                                                 
   LEXCH  = PE                                                                                      
   EATOM  =   257.1286 eV,   18.8984 Ry                                                             
                                                                                                    
   TITEL  = PAW_PBE Se 06Sep2000                                                                    
   LULTRA =        F    use ultrasoft PP ?                                                          
   IUNSCR =        1    unscreen: 0-lin 1-nonlin 2-no                                               
   RPACOR =    1.900    partial core radius                                                         
   POMASS =   78.960; ZVAL   =    6.000    mass and valenz                                          
   RCORE  =    2.100    outmost cutoff radius                                                       
   RWIGS  =    2.200; RWIGS  =    1.164    wigner-seitz radius (au A)                               
   ENMAX  =  211.555; ENMIN  =  158.666 eV                                                          
   ICORE  =        3    local potential                                                             
   LCOR   =        T    correct aug charges                                                         
   LPAW   =        T    paw PP                                                                      
   EAUG   =  446.842                                                                                
   DEXC   =    0.000                                                                                
   RMAX   =    2.147    core radius for proj-oper                                                   
   RAUG   =    1.300    factor for augmentation sphere                                              
   RDEP   =    2.177    radius for radial grids                                                     
   RDEPT  =    1.928    core radius for aug-charge                                                  
                                                                                                    
   Atomic configuration                                                                             
   10 entries                                                                                       
     n  l   j            E        occ.                                                              
     1  0  0.50    -12503.4787   2.0000                                                             
     2  0  0.50     -1606.9547   2.0000                                                             
     2  1  1.50     -1413.3140   6.0000                                                             
     3  0  0.50      -213.4885   2.0000                                                             
     3  1  1.50      -152.9538   6.0000                                                             
     3  2  2.50       -53.1221  10.0000                                                             
     4  0  0.50       -17.2865   2.0000                                                             
     4  1  0.50        -6.5110   4.0000                                                             
     4  2  2.50        -6.8029   0.0000                                                             
     4  3  2.50        -6.8029   0.0000                                                             
   Description                                                                                      
     l       E           TYP  RCUT    TYP  RCUT                                                     
     0    -17.2865377     23  2.100                                                                 
     0    -15.3094411     23  2.100                                                                 
     1     -6.5110275     23  2.100                                                                 
     1     -0.0695192     23  2.100                                                                 
     2     -6.8029130     23  2.100                                                                 
     3     -1.3605826      7  2.100                                                                 
  local pseudopotential read in
  partial core-charges read in
  partial kinetic energy density read in
  atomic valenz-charges read in
  non local Contribution for L=           0  read in
    real space projection operators read in
  non local Contribution for L=           0  read in
    real space projection operators read in
  non local Contribution for L=           1  read in
    real space projection operators read in
  non local Contribution for L=           1  read in
    real space projection operators read in
  non local Contribution for L=           2  read in
    real space projection operators read in
    PAW grid and wavefunctions read in
 
   number of l-projection  operators is LMAX  =           5
   number of lm-projection operators is LMMAX =          13
 
 POTCAR:    PAW_PBE O 08Apr2002                   
   SHA256 =  818f92134a0a090dccd8ba1447fa70422a3b330e708bb4f08108d8ae51209ddf O/POTCAR              
   COPYR  = (c) Copyright 08Apr2002 Georg Kresse                                                    
   COPYR  = This file is part of the software VASP. Any use, copying, and all other rights are regul
   COPYR  = If you do not have a valid VASP license, you may not use, copy or distribute this file. 
   VRHFIN =O: s2p4                                                                                  
   LEXCH  = PE                                                                                      
   EATOM  =   432.3788 eV,   31.7789 Ry                                                             
                                                                                                    
   TITEL  = PAW_PBE O 08Apr2002                                                                     
   LULTRA =        F    use ultrasoft PP ?                                                          
   IUNSCR =        1    unscreen: 0-lin 1-nonlin 2-no                                               
   RPACOR =    1.200    partial core radius                                                         
   POMASS =   16.000; ZVAL   =    6.000    mass and valenz                                          
   RCORE  =    1.520    outmost cutoff radius                                                       
   RWIGS  =    1.550; RWIGS  =    0.820    wigner-seitz radius (au A)                               
   ENMAX  =  400.000; ENMIN  =  300.000 eV                                                          
   ICORE  =        2    local potential                                                             
   LCOR   =        T    correct aug charges                                                         
   LPAW   =        T    paw PP                                                                      
   EAUG   =  605.392                                                                                
   DEXC   =    0.000                                                                                
   RMAX   =    1.553    core radius for proj-oper                                                   
   RAUG   =    1.300    factor for augmentation sphere                                              
   RDEP   =    1.550    radius for radial grids                                                     
   RDEPT  =    1.329    core radius for aug-charge                                                  
                                                                                                    
   Atomic configuration                                                                             
    4 entries                                                                                       
     n  l   j            E        occ.                                                              
     1  0  0.50      -514.6923   2.0000                                                             
     2  0  0.50       -23.9615   2.0000                                                             
     2  1  0.50        -9.0305   4.0000                                                             
     3  2  1.50        -9.5241   0.0000                                                             
   Description                                                                                      
     l       E           TYP  RCUT    TYP  RCUT                                                     
     0    -23.9615318     23  1.200                                                                 
     0     -9.5240782     23  1.200                                                                 
     1     -9.0304911     23  1.520                                                                 
     1      8.1634956     23  1.520                                                                 
     2     -9.5240782      7  1.500                                                                 
  local pseudopotential read in
  partial core-charges read in
  partial kinetic energy density read in
  kinetic energy density of atom read in
  atomic valenz-charges read in
  non local Contribution for L=           0  read in
    real space projection operators read in
  non local Contribution for L=           0  read in
    real space projection operators read in
  non local Contribution for L=           1  read in
    real space projection operators read in
  non local Contribution for L=           1  read in
    real space projection operators read in
    PAW grid and wavefunctions read in
 
   number of l-projection  operators is LMAX  =           4
   number of lm-projection operators is LMMAX =           8
 
 POTCAR:    PAW_PBE S 06Sep2000                   
   SHA256 =  0fc7481fb0695f01bdc6462160264c5c84044ae9ec85a907d398b887a2bc3132 S/POTCAR              
   COPYR  = (c) Copyright 06Sep2000 Georg Kresse                                                    
   COPYR  = This file is part of the software VASP. Any use, copying, and all other rights are regul
   COPYR  = If you do not have a valid VASP license, you may not use, copy or distribute this file. 
   VRHFIN =S : s2p4                                                                                 
   LEXCH  = PE                                                                                      
   EATOM  =   276.8230 eV,   20.3459 Ry                                                             
                                                                                                    
   TITEL  = PAW_PBE S 06Sep2000                                                                     
   LULTRA =        F    use ultrasoft PP ?                                                          
   IUNSCR =        1    unscreen: 0-lin 1-nonlin 2-no                                               
   RPACOR =    1.500    partial core radius                                                         
   POMASS =   32.066; ZVAL   =    6.000    mass and valenz                                          
   RCORE  =    1.900    outmost cutoff radius                                                       
   RWIGS  =    2.200; RWIGS  =    1.164    wigner-seitz radius (au A)                               
   ENMAX  =  258.689; ENMIN  =  194.016 eV                                                          
   ICORE  =        2    local potential                                                             
   LCOR   =        T    correct aug charges                                                         
   LPAW   =        T    paw PP                                                                      
   EAUG   =  335.092                                                                                
   DEXC   =    0.000                                                                                
   RMAX   =    1.942    core radius for proj-oper                                                   
   RAUG   =    1.300    factor for augmentation sphere                                              
   RDEP   =    1.954    radius for radial grids                                                     
   RDEPT  =    1.744    core radius for aug-charge                                                  
                                                                                                    
   Atomic configuration                                                                             
    6 entries                                                                                       
     n  l   j            E        occ.                                                              
     1  0  0.50     -2405.8406   2.0000                                                             
     2  0  0.50      -211.7007   2.0000                                                             
     2  1  1.50      -156.4958   6.0000                                                             
     3  0  0.50       -17.2562   2.0000                                                             
     3  1  0.50        -7.0085   4.0000                                                             
     3  2  1.50        -6.8029   0.0000                                                             
   Description                                                                                      
     l       E           TYP  RCUT    TYP  RCUT                                                     
     0    -17.2561641     23  1.900                                                                 
     0    -15.8743224     23  1.900                                                                 
     1     -7.0085400     23  1.900                                                                 
     1     -2.7779785     23  1.900                                                                 
     2     -6.8029130     23  1.900                                                                 
  local pseudopotential read in
  partial core-charges read in
  partial kinetic energy density read in
  atomic valenz-charges read in
  non local Contribution for L=           0  read in
    real space projection operators read in
  non local Contribution for L=           0  read in
    real space projection operators read in
  non local Contribution for L=           1  read in
    real space projection operators read in
  non local Contribution for L=           1  read in
    real space projection operators read in
    PAW grid and wavefunctions read in
 
   number of l-projection  operators is LMAX  =           4
   number of lm-projection operators is LMMAX =           8
 
 -----------------------------------------------------------------------------
|                                                                             |
|               ----> ADVICE to this user running VASP <----                  |
|                                                                             |
|     You have a (more or less) 'large supercell' and for larger cells it     |
|     might be more efficient to use real-space projection operators.         |
|     Therefore, try LREAL= Auto in the INCAR file.                           |
|     Mind: For very accurate calculation, you might also keep the            |
|     reciprocal projection scheme (i.e. LREAL=.FALSE.).                      |
|                                                                             |
 -----------------------------------------------------------------------------

  PAW_PBE Bi_d 06Sep2000                :
 energy of atom  1       EATOM=-1959.2045
 kinetic energy error for atom=    0.0040 (will be added to EATOM!!)
  PAW_PBE Se 06Sep2000                  :
 energy of atom  2       EATOM= -257.1286
 kinetic energy error for atom=    0.0007 (will be added to EATOM!!)
  PAW_PBE O 08Apr2002                   :
 energy of atom  3       EATOM= -432.3788
 kinetic energy error for atom=    0.0208 (will be added to EATOM!!)
  PAW_PBE S 06Sep2000                   :
 energy of atom  4       EATOM= -276.8230
 kinetic energy error for atom=    0.0016 (will be added to EATOM!!)
 
 
 POSCAR: generated by phonopy
  positions in direct lattice
  velocities in cartesian coordinates


 exchange-correlation table for PE
   RHO(1)=    0.500       N(1)  =     2000
   RHO(2)=  100.500       N(2)  =     4000
 


--------------------------------------------------------------------------------------------------------


 ion  position               nearest neighbor table
   1  0.249  0.249  0.850-  24 2.37  28 2.37  25 2.39  30 2.39   8 3.81   7 3.81   6 3.81   5 3.81
                            13 3.83
   2  0.751  0.249  0.850-  24 2.37  29 2.37  25 2.39  31 2.39   8 3.81   7 3.81   6 3.81   5 3.81
                            14 3.83
   3  0.249  0.751  0.850-  26 2.37  28 2.37  27 2.39  30 2.39   8 3.81   7 3.81   6 3.81   5 3.81
                            15 3.83
   4  0.751  0.751  0.850-  26 2.37  29 2.37  27 2.39  31 2.39   8 3.81   7 3.81   6 3.81   5 3.81
                            16 3.83
   5  0.000  0.000  0.651-  24 2.39  26 2.39  28 2.39  29 2.39   1 3.81   2 3.81   3 3.81   4 3.81
                             9 3.84
   6  0.500  0.000  0.652-  28 2.38  29 2.38  25 2.38  27 2.38   1 3.81   2 3.81   3 3.81   4 3.81
                            10 3.88
   7  0.000  0.500  0.652-  24 2.38  26 2.38  30 2.38  31 2.38   1 3.81   2 3.81   3 3.81   4 3.81
                            11 3.88
   8  0.500  0.500  0.654-  25 2.37  27 2.37  30 2.37  31 2.37   1 3.81   2 3.81   3 3.81   4 3.81
                            12 3.91
   9  0.000  0.000  0.349-  32 2.39  33 2.39  36 2.39  38 2.39  13 3.81  14 3.81  15 3.81  16 3.81
                             5 3.84
  10  0.500  0.000  0.348-  32 2.38  33 2.38  37 2.38  39 2.38  13 3.81  14 3.81  15 3.81  16 3.81
                             6 3.88
  11  0.000  0.500  0.348-  36 2.38  38 2.38  34 2.38  35 2.38  13 3.81  14 3.81  15 3.81  16 3.81
                             7 3.88
  12  0.500  0.500  0.346-  34 2.37  35 2.37  37 2.37  39 2.37  13 3.81  14 3.81  15 3.81  16 3.81
                             8 3.91
  13  0.249  0.249  0.150-  36 2.37  32 2.37  34 2.39  37 2.39  12 3.81  11 3.81  10 3.81   9 3.81
                             1 3.83
  14  0.751  0.249  0.150-  36 2.37  33 2.37  35 2.39  37 2.39  12 3.81  11 3.81  10 3.81   9 3.81
                             2 3.83
  15  0.249  0.751  0.150-  38 2.37  32 2.37  34 2.39  39 2.39  12 3.81  11 3.81  10 3.81   9 3.81
                             3 3.83
  16  0.751  0.751  0.150-  38 2.37  33 2.37  35 2.39  39 2.39  12 3.81  11 3.81  10 3.81   9 3.81
                             4 3.83
  17  0.500  0.000  0.000-
  18  0.000  0.500  0.000-
  19  0.500  0.500  0.000-
  20  0.248  0.248  0.500-
  21  0.752  0.248  0.500-
  22  0.248  0.752  0.500-
  23  0.752  0.752  0.500-
  24  0.000  0.250  0.751-   1 2.37   2 2.37   7 2.38   5 2.39
  25  0.500  0.250  0.751-   8 2.37   6 2.38   1 2.39   2 2.39
  26  0.000  0.750  0.751-   3 2.37   4 2.37   7 2.38   5 2.39
  27  0.500  0.750  0.751-   8 2.37   6 2.38   3 2.39   4 2.39
  28  0.250  0.000  0.751-   1 2.37   3 2.37   6 2.38   5 2.39
  29  0.750  0.000  0.751-   2 2.37   4 2.37   6 2.38   5 2.39
  30  0.250  0.500  0.751-   8 2.37   7 2.38   1 2.39   3 2.39
  31  0.750  0.500  0.751-   8 2.37   7 2.38   2 2.39   4 2.39
  32  0.250  0.000  0.249-  13 2.37  15 2.37  10 2.38   9 2.39
  33  0.750  0.000  0.249-  14 2.37  16 2.37  10 2.38   9 2.39
  34  0.250  0.500  0.249-  12 2.37  11 2.38  13 2.39  15 2.39
  35  0.750  0.500  0.249-  12 2.37  11 2.38  14 2.39  16 2.39
  36  0.000  0.250  0.249-  13 2.37  14 2.37  11 2.38   9 2.39
  37  0.500  0.250  0.249-  12 2.37  10 2.38  13 2.39  14 2.39
  38  0.000  0.750  0.249-  15 2.37  16 2.37  11 2.38   9 2.39
  39  0.500  0.750  0.249-  12 2.37  10 2.38  15 2.39  16 2.39
  40  0.000  0.000  0.000-
 
  LATTYP: Found a simple tetragonal cell.
 ALAT       =     8.0753638201
 C/A-ratio  =     1.5781187256
  
  Lattice vectors:
  
 A1 = (   8.0753638201,   0.0000000000,   0.0000000000)
 A2 = (   0.0000000000,   8.0753638201,   0.0000000000)
 A3 = (   0.0000000000,   0.0000000000,  12.7438828606)


Analysis of symmetry for initial positions (statically):
=====================================================================
 Subroutine PRICEL returns:
 Original cell was already a primitive cell.
 

 Routine SETGRP: Setting up the symmetry group for a 
 simple tetragonal supercell.


 Subroutine GETGRP returns: Found 16 space group operations
 (whereof 16 operations were pure point group operations)
 out of a pool of 16 trial point group operations.


The static configuration has the point symmetry D_4h.


Analysis of symmetry for dynamics (positions and initial velocities):
=====================================================================
 Subroutine PRICEL returns:
 Original cell was already a primitive cell.
 

 Routine SETGRP: Setting up the symmetry group for a 
 simple tetragonal supercell.


 Subroutine GETGRP returns: Found 16 space group operations
 (whereof 16 operations were pure point group operations)
 out of a pool of 16 trial point group operations.


The dynamic configuration has the point symmetry D_4h.


 Subroutine INISYM returns: Found 16 space group operations
 (whereof 16 operations are pure point group operations),
 and found     1 'primitive' translations


----------------------------------------------------------------------------------------

                                     Primitive cell                                     

  volume of cell :     831.0477

  direct lattice vectors                    reciprocal lattice vectors
     8.075363820  0.000000000  0.000000000     0.123833430  0.000000000  0.000000000
     0.000000000  8.075363820  0.000000000     0.000000000  0.123833430  0.000000000
     0.000000000  0.000000000 12.743882861     0.000000000  0.000000000  0.078469020

  length of vectors
     8.075363820  8.075363820 12.743882861     0.123833430  0.123833430  0.078469020

  position of ions in fractional coordinates (direct lattice)
     0.248897652  0.248897652  0.849840824
     0.751102348  0.248897652  0.849840824
     0.248897652  0.751102348  0.849840824
     0.751102348  0.751102348  0.849840824
     0.000000000  0.000000000  0.650631014
     0.500000000  0.000000000  0.652064188
     0.000000000  0.500000000  0.652064188
     0.500000000  0.500000000  0.653572128
     0.000000000  0.000000000  0.349368986
     0.500000000  0.000000000  0.347935812
     0.000000000  0.500000000  0.347935812
     0.500000000  0.500000000  0.346427872
     0.248897652  0.248897652  0.150159176
     0.751102348  0.248897652  0.150159176
     0.248897652  0.751102348  0.150159176
     0.751102348  0.751102348  0.150159176
     0.500000000  0.000000000  0.000000000
     0.000000000  0.500000000  0.000000000
     0.500000000  0.500000000  0.000000000
     0.248446556  0.248446556  0.500000000
     0.751553444  0.248446556  0.500000000
     0.248446556  0.751553444  0.500000000
     0.751553444  0.751553444  0.500000000
     0.000000000  0.249977442  0.750789333
     0.500000000  0.250100728  0.751150170
     0.000000000  0.750022558  0.750789333
     0.500000000  0.749899272  0.751150170
     0.249977442  0.000000000  0.750789333
     0.750022558  0.000000000  0.750789333
     0.250100728  0.500000000  0.751150170
     0.749899272  0.500000000  0.751150170
     0.249977442  0.000000000  0.249210667
     0.750022558  0.000000000  0.249210667
     0.250100728  0.500000000  0.248849830
     0.749899272  0.500000000  0.248849830
     0.000000000  0.249977442  0.249210667
     0.500000000  0.250100728  0.248849830
     0.000000000  0.750022558  0.249210667
     0.500000000  0.749899272  0.248849830
     0.000000000  0.000000000  0.000000000

  ion indices of the primitive-cell ions
   primitive index   ion index
                 1           1
                 2           2
                 3           3
                 4           4
                 5           5
                 6           6
                 7           7
                 8           8
                 9           9
                10          10
                11          11
                12          12
                13          13
                14          14
                15          15
                16          16
                17          17
                18          18
                19          19
                20          20
                21          21
                22          22
                23          23
                24          24
                25          25
                26          26
                27          27
                28          28
                29          29
                30          30
                31          31
                32          32
                33          33
                34          34
                35          35
                36          36
                37          37
                38          38
                39          39
                40          40

----------------------------------------------------------------------------------------

 
 
 KPOINTS: K-Spacing Value to Generate K-Mesh: 0.03

Automatic generation of k-mesh.
 Grid dimensions read from file:
 generate k-points for:    4    4    3

 Generating k-lattice:

  Cartesian coordinates                     Fractional coordinates (reciprocal lattice)
     0.030958357  0.000000000  0.000000000     0.250000000  0.000000000  0.000000000
     0.000000000  0.030958357  0.000000000     0.000000000  0.250000000  0.000000000
     0.000000000  0.000000000  0.026156340     0.000000000  0.000000000  0.333333333

  Length of vectors
     0.030958357  0.030958357  0.026156340

  Shift w.r.t. Gamma in fractional coordinates (k-lattice)
     0.000000000  0.000000000  0.000000000

 
 Subroutine IBZKPT returns following result:
 ===========================================
 
 Found     12 irreducible k-points:
 
 Following reciprocal coordinates:
            Coordinates               Weight
  0.000000  0.000000  0.000000      1.000000
  0.250000  0.000000  0.000000      4.000000
  0.500000  0.000000  0.000000      2.000000
  0.250000  0.250000  0.000000      4.000000
  0.500000  0.250000  0.000000      4.000000
  0.500000  0.500000  0.000000      1.000000
  0.000000  0.000000  0.333333      2.000000
  0.250000  0.000000  0.333333      8.000000
  0.500000  0.000000  0.333333      4.000000
  0.250000  0.250000  0.333333      8.000000
  0.500000  0.250000  0.333333      8.000000
  0.500000  0.500000  0.333333      2.000000
 
 Following cartesian coordinates:
            Coordinates               Weight
  0.000000  0.000000  0.000000      1.000000
  0.031887  0.000000  0.000000      4.000000
  0.063774  0.000000  0.000000      2.000000
  0.031887  0.031887  0.000000      4.000000
  0.063774  0.031887  0.000000      4.000000
  0.063774  0.063774  0.000000      1.000000
  0.000000  0.000000  0.026941      2.000000
  0.031887  0.000000  0.026941      8.000000
  0.063774  0.000000  0.026941      4.000000
  0.031887  0.031887  0.026941      8.000000
  0.063774  0.031887  0.026941      8.000000
  0.063774  0.063774  0.026941      2.000000
 


--------------------------------------------------------------------------------------------------------




 Dimension of arrays:
   k-points           NKPTS =     12   k-points in BZ     NKDIM =     12   number of bands    NBANDS=    232
   number of dos      NEDOS =    301   number of ions     NIONS =     40
   non local maximal  LDIM  =      6   non local SUM 2l+1 LMDIM =     18
   total plane-waves  NPLWV = 345600
   max r-space proj   IRMAX =      1   max aug-charges    IRDMAX= 147210
   dimension x,y,z NGX =    60 NGY =   60 NGZ =   96
   dimension x,y,z NGXF=   120 NGYF=  120 NGZF=  192
   support grid    NGXF=   240 NGYF=  240 NGZF=  384
   ions per type =              16   7  16   1
   NGX,Y,Z   is equivalent  to a cutoff of  12.35, 12.35, 12.52 a.u.
   NGXF,Y,Z  is equivalent  to a cutoff of  24.70, 24.70, 25.05 a.u.

 SYSTEM =  unknown system                          
 POSCAR =  generated by phonopy                    

 Startparameter for this run:
   NWRITE =      2    write-flag & timer
   PREC   = accura    normal or accurate (medium, high low for compatibility)
   ISTART =      0    job   : 0-new  1-cont  2-samecut
   ICHARG =      2    charge: 1-file 2-atom 10-const
   ISPIN  =      1    spin polarized calculation?
   LNONCOLLINEAR =      F non collinear calculations
   LSORBIT =      F    spin-orbit coupling
   INIWAV =      1    electr: 0-lowe 1-rand  2-diag
   LASPH  =      F    aspherical Exc in radial PAW
 Electronic Relaxation 1
   ENCUT  =  520.0 eV  38.22 Ry    6.18 a.u.  15.01 15.01 23.70*2*pi/ulx,y,z
   ENINI  =  520.0     initial cutoff
   ENAUG  =  605.4 eV  augmentation charge cutoff
   NELM   =     60;   NELMIN=  5; NELMDL= -5     # of ELM steps 
   EDIFF  = 0.1E-07   stopping-criterion for ELM
   LREAL  =      F    real-space projection
   NLSPLINE    = F    spline interpolate recip. space projectors
   LCOMPAT=      F    compatible to vasp.4.4
   GGA_COMPAT  = T    GGA compatible to vasp.4.4-vasp.4.6
   LMAXPAW     = -100 max onsite density
   LMAXMIX     =    2 max onsite mixed and CHGCAR
   VOSKOWN=      0    Vosko Wilk Nusair interpolation
   ROPT   =    0.00000   0.00000   0.00000   0.00000
 Ionic relaxation
   EDIFFG = -.1E-04   stopping-criterion for IOM
   NSW    =    100    number of steps for IOM
   NBLOCK =      1;   KBLOCK =    100    inner block; outer block 
   IBRION =      2    ionic relax: 0-MD 1-quasi-New 2-CG
   NFREE  =      1    steps in history (QN), initial steepest desc. (CG)
   ISIF   =      2    stress and relaxation
   IWAVPR =     11    prediction:  0-non 1-charg 2-wave 3-comb
   ISYM   =      2    0-nonsym 1-usesym 2-fastsym
   LCORR  =      T    Harris-Foulkes like correction to forces

   POTIM  = 0.5000    time-step for ionic-motion
   TEIN   =    0.0    initial temperature
   TEBEG  =    0.0;   TEEND  =   0.0 temperature during run
   SMASS  =  -3.00    Nose mass-parameter (am)
   estimated Nose-frequenzy (Omega)   =  0.10E-29 period in steps = 0.13E+47 mass=  -0.149E-26a.u.
   SCALEE = 1.0000    scale energy and forces
   NPACO  =    256;   APACO  = 10.0  distance and # of slots for P.C.
   PSTRESS=    0.0 pullay stress

  Mass of Ions in am
   POMASS = 208.98 78.96 16.00 32.07
  Ionic Valenz
   ZVAL   =  15.00  6.00  6.00  6.00
  Atomic Wigner-Seitz radii
   RWIGS  =  -1.00 -1.00 -1.00 -1.00
  virtual crystal weights 
   VCA    =   1.00  1.00  1.00  1.00
   NELECT =     384.0000    total number of electrons
   NUPDOWN=      -1.0000    fix difference up-down

 DOS related values:
   EMIN   =  10.00;   EMAX   =-10.00  energy-range for DOS
   EFERMI =   0.00;   METHOD = LEGACY      
   ISMEAR =     0;   SIGMA  =   0.05  broadening in eV -4-tet -1-fermi 0-gaus

 Electronic relaxation 2 (details)
   IALGO  =     38    algorithm
   LDIAG  =      T    sub-space diagonalisation (order eigenvalues)
   LSUBROT=      F    optimize rotation matrix (better conditioning)
   TURBO    =      0    0=normal 1=particle mesh
   IRESTART =      0    0=no restart 2=restart with 2 vectors
   NREBOOT  =      0    no. of reboots
   NMIN     =      0    reboot dimension
   EREF     =   0.00    reference energy to select bands
   IMIX   =      4    mixing-type and parameters
     AMIX     =   0.40;   BMIX     =  1.00
     AMIX_MAG =   1.60;   BMIX_MAG =  1.00
     AMIN     =   0.10
     WC   =   100.;   INIMIX=   1;  MIXPRE=   1;  MAXMIX= -45

 Intra band minimization:
   WEIMIN = 0.0010     energy-eigenvalue tresh-hold
   EBREAK =  0.11E-10  absolut break condition
   DEPER  =   0.30     relativ break condition  

   TIME   =   0.40     timestep for ELM

  volume/ion in A,a.u.               =      20.78       140.20
  Fermi-wavevector in a.u.,A,eV,Ry     =   1.265639  2.391711 21.794391  1.601843
  Thomas-Fermi vector in A             =   2.398882
 
 Write flags
   LWAVE        =      F    write WAVECAR
   LDOWNSAMPLE  =      F    k-point downsampling of WAVECAR
   LCHARG       =      F    write CHGCAR
   LVTOT        =      F    write LOCPOT, total local potential
   LVHAR        =      F    write LOCPOT, Hartree potential only
   WRT_POTENTIAL= false  ! write potential to hdf5 file
   LELF         =      F    write electronic localiz. function (ELF)
   LORBIT       =      0    0 simple, 1 ext, 2 COOP (PROOUT), +10 PAW based schemes


 Dipole corrections
   LMONO      =      F    monopole corrections only (constant potential shift)
   LDIPOL     =      F    correct potential (dipole corrections)
   IDIPOL     =      0    1-x, 2-y, 3-z, 4-all directions 
   EPSILON    =  1.0000000 bulk dielectric constant
   LVACPOTAV  =      F  vacuum potentials using an averaging scheme for the charge density
   VACPOTFLAT =  0.1000000 required flatness to determine vacuum potential
 Exchange correlation treatment:
   GGA     = PE    functional components
   XC_C    = 1    coefficients multiplying the functional components
   LIBXC   =     F    Libxc                    
   VOSKOWN =     0    Vosko Wilk Nusair interpolation
   LHFCALC =     F    Hartree Fock is set to
   LHFONE  =     F    Hartree Fock one center treatment
   AEXX    =    0.0000 exact exchange contribution

 Parameters of functionals:
   PE:
     No parameter
 
 Van der Waals corrections
   IVDW    =     0    specifies the selected vdW correction

 Linear response parameters
   LEPSILON=     F    determine dielectric tensor
   LRPA    =     F    only Hartree local field effects (RPA)
   LNABLA  =     F    use nabla operator in PAW spheres
   LVEL    =     F    velocity operator in full k-point grid
   CSHIFT  =0.1000    complex shift for real part using Kramers Kronig
   OMEGAMAX=  -1.0    maximum frequency
   DEG_THRESHOLD= 0.2000000E-02 threshold for treating states as degnerate
   RTIME   =   -0.100 relaxation time in fs
  (WPLASMAI=    0.000 imaginary part of plasma frequency in eV, 0.658/RTIME)
   DFIELD  = 0.0000000 0.0000000 0.0000000 field for delta impulse in time
 
  Optional k-point grid parameters
   LKPOINTS_OPT  =     F    use optional k-point grid
   KPOINTS_OPT_MODE=     1    mode for optional k-point grid
 
 Orbital magnetization related:
   ORBITALMAG=     F  switch on orbital magnetization
   LCHIMAG   =     F  perturbation theory with respect to B field
   DQ        =  0.001000  dq finite difference perturbation B field
   LLRAUG    =     F  two centre corrections for induced B field
   LBONE     =     F  B-component reconstruction in AE one-centre
   LVGVCALC  =     T  calculate vGv susceptibility
   LVGVAPPL  =     F  apply vGv susceptibility instead of pGv for G=0

 Random number generation:
   RANDOM_GENERATOR = DEFAULT
   PCG_SEED         = not used


--------------------------------------------------------------------------------------------------------


 conjugate gradient relaxation of ions
 charge density and potential will be updated during run
 non-spin polarized calculation
 Variant of blocked Davidson
 Davidson routine will perform the subspace rotation
 perform sub-space diagonalisation
    after iterative eigenvector-optimisation
 modified Broyden-mixing scheme, WC =      100.0
 initial mixing is a Kerker type mixing with AMIX =  0.4000 and BMIX =      1.0000
 Hartree-type preconditioning will be used
 using additional bands           40
 reciprocal scheme for non local part
 use partial core corrections
 calculate Harris-corrections to forces 
   (improved forces if not selfconsistent)
 use gradient corrections 
 use of overlap-Matrix (Vanderbilt PP)
 Gauss-broadening in eV      SIGMA  =   0.05


--------------------------------------------------------------------------------------------------------


  energy-cutoff  :      520.00
  volume of cell :      831.05
      direct lattice vectors                 reciprocal lattice vectors
     8.075363820  0.000000000  0.000000000     0.123833430  0.000000000  0.000000000
     0.000000000  8.075363820  0.000000000     0.000000000  0.123833430  0.000000000
     0.000000000  0.000000000 12.743882861     0.000000000  0.000000000  0.078469020

  length of vectors
     8.075363820  8.075363820 12.743882861     0.123833430  0.123833430  0.078469020


 
 k-points in units of 2pi/SCALE and weight: K-Spacing Value to Generate K-Mesh: 0.03
   0.00000000  0.00000000  0.00000000       0.021
   0.03188711  0.00000000  0.00000000       0.083
   0.06377422  0.00000000  0.00000000       0.042
   0.03188711  0.03188711  0.00000000       0.083
   0.06377422  0.03188711  0.00000000       0.083
   0.06377422  0.06377422  0.00000000       0.021
   0.00000000  0.00000000  0.02694103       0.042
   0.03188711  0.00000000  0.02694103       0.167
   0.06377422  0.00000000  0.02694103       0.083
   0.03188711  0.03188711  0.02694103       0.167
   0.06377422  0.03188711  0.02694103       0.167
   0.06377422  0.06377422  0.02694103       0.042
 
 k-points in reciprocal lattice and weights: K-Spacing Value to Generate K-Mesh: 0.03
   0.00000000  0.00000000  0.00000000       0.021
   0.25000000  0.00000000  0.00000000       0.083
   0.50000000  0.00000000  0.00000000       0.042
   0.25000000  0.25000000  0.00000000       0.083
   0.50000000  0.25000000  0.00000000       0.083
   0.50000000  0.50000000  0.00000000       0.021
   0.00000000  0.00000000  0.33333333       0.042
   0.25000000  0.00000000  0.33333333       0.167
   0.50000000  0.00000000  0.33333333       0.083
   0.25000000  0.25000000  0.33333333       0.167
   0.50000000  0.25000000  0.33333333       0.167
   0.50000000  0.50000000  0.33333333       0.042
 
 position of ions in fractional coordinates (direct lattice) 
   0.24889765  0.24889765  0.84984082
   0.75110235  0.24889765  0.84984082
   0.24889765  0.75110235  0.84984082
   0.75110235  0.75110235  0.84984082
   0.00000000  0.00000000  0.65063101
   0.50000000  0.00000000  0.65206419
   0.00000000  0.50000000  0.65206419
   0.50000000  0.50000000  0.65357213
   0.00000000  0.00000000  0.34936899
   0.50000000  0.00000000  0.34793581
   0.00000000  0.50000000  0.34793581
   0.50000000  0.50000000  0.34642787
   0.24889765  0.24889765  0.15015918
   0.75110235  0.24889765  0.15015918
   0.24889765  0.75110235  0.15015918
   0.75110235  0.75110235  0.15015918
   0.50000000  0.00000000  0.00000000
   0.00000000  0.50000000  0.00000000
   0.50000000  0.50000000  0.00000000
   0.24844656  0.24844656  0.50000000
   0.75155344  0.24844656  0.50000000
   0.24844656  0.75155344  0.50000000
   0.75155344  0.75155344  0.50000000
   0.00000000  0.24997744  0.75078933
   0.50000000  0.25010073  0.75115017
   0.00000000  0.75002256  0.75078933
   0.50000000  0.74989927  0.75115017
   0.24997744  0.00000000  0.75078933
   0.75002256  0.00000000  0.75078933
   0.25010073  0.50000000  0.75115017
   0.74989927  0.50000000  0.75115017
   0.24997744  0.00000000  0.24921067
   0.75002256  0.00000000  0.24921067
   0.25010073  0.50000000  0.24884983
   0.74989927  0.50000000  0.24884983
   0.00000000  0.24997744  0.24921067
   0.50000000  0.25010073  0.24884983
   0.00000000  0.75002256  0.24921067
   0.50000000  0.74989927  0.24884983
   0.00000000  0.00000000  0.00000000
 
 position of ions in cartesian coordinates  (Angst):
   2.00993909  2.00993909 10.83027191
   6.06542473  2.00993909 10.83027191
   2.00993909  6.06542473 10.83027191
   6.06542473  6.06542473 10.83027191
   0.00000000  0.00000000  8.29156542
   4.03768191  0.00000000  8.30982963
   0.00000000  4.03768191  8.30982963
   4.03768191  4.03768191  8.32904664
   0.00000000  0.00000000  4.45231744
   4.03768191  0.00000000  4.43405323
   0.00000000  4.03768191  4.43405323
   4.03768191  4.03768191  4.41483622
   2.00993909  2.00993909  1.91361095
   6.06542473  2.00993909  1.91361095
   2.00993909  6.06542473  1.91361095
   6.06542473  6.06542473  1.91361095
   4.03768191  0.00000000  0.00000000
   0.00000000  4.03768191  0.00000000
   4.03768191  4.03768191  0.00000000
   2.00629633  2.00629633  6.37194143
   6.06906749  2.00629633  6.37194143
   2.00629633  6.06906749  6.37194143
   6.06906749  6.06906749  6.37194143
   0.00000000  2.01865879  9.56797131
   4.03768191  2.01965437  9.57256977
   0.00000000  6.05670503  9.56797131
   4.03768191  6.05570945  9.57256977
   2.01865879  0.00000000  9.56797131
   6.05670503  0.00000000  9.56797131
   2.01965437  4.03768191  9.57256977
   6.05570945  4.03768191  9.57256977
   2.01865879  0.00000000  3.17591155
   6.05670503  0.00000000  3.17591155
   2.01965437  4.03768191  3.17131309
   6.05570945  4.03768191  3.17131309
   0.00000000  2.01865879  3.17591155
   4.03768191  2.01965437  3.17131309
   0.00000000  6.05670503  3.17591155
   4.03768191  6.05570945  3.17131309
   0.00000000  0.00000000  0.00000000
 


--------------------------------------------------------------------------------------------------------


 k-point     1 :   0.0000 0.0000 0.0000  plane waves:   22307
 k-point     2 :   0.2500 0.0000 0.0000  plane waves:   22352
 k-point     3 :   0.5000 0.0000 0.0000  plane waves:   22354
 k-point     4 :   0.2500 0.2500 0.0000  plane waves:   22395
 k-point     5 :   0.5000 0.2500 0.0000  plane waves:   22426
 k-point     6 :   0.5000 0.5000 0.0000  plane waves:   22436
 k-point     7 :   0.0000 0.0000 0.3333  plane waves:   22384
 k-point     8 :   0.2500 0.0000 0.3333  plane waves:   22328
 k-point     9 :   0.5000 0.0000 0.3333  plane waves:   22328
 k-point    10 :   0.2500 0.2500 0.3333  plane waves:   22360
 k-point    11 :   0.5000 0.2500 0.3333  plane waves:   22406
 k-point    12 :   0.5000 0.5000 0.3333  plane waves:   22428

 maximum and minimum number of plane-waves per node :      2514     2454

 maximum number of plane-waves:     22436
 maximum index in each direction: 
   IXMAX=   15   IYMAX=   15   IZMAX=   23
   IXMIN=  -15   IYMIN=  -15   IZMIN=  -24


 parallel 3D FFT for wavefunctions:
    minimum data exchange during FFTs selected (reduces bandwidth)
 parallel 3D FFT for charge:
    minimum data exchange during FFTs selected (reduces bandwidth)


 total amount of memory used by VASP MPI-rank0    98944. kBytes
=======================================================================

   base      :      30000. kBytes
   nonl-proj :      18910. kBytes
   fftplans  :      13008. kBytes
   grid      :       8308. kBytes
   one-center:         77. kBytes
   wavefun   :      28641. kBytes
 
     INWAV:  cpu time      0.0001: real time      0.0000
 Broyden mixing: mesh for mixing (old mesh)
   NGX = 31   NGY = 31   NGZ = 47
  (NGX  =120   NGY  =120   NGZ  =192)
  gives a total of  45167 points

 initial charge density was supplied:
 charge density of overlapping atoms calculated
 number of electron     384.0000000 magnetization 
 keeping initial charge density in first step


--------------------------------------------------------------------------------------------------------


 Maximum index for augmentation-charges         4808 (set IRDMAX)


--------------------------------------------------------------------------------------------------------


 First call to EWALD:  gamma=   0.189
 Maximum number of real-space cells 3x 3x 2
 Maximum number of reciprocal cells 2x 2x 4

    FEWALD:  cpu time      0.0024: real time      0.0024


--------------------------------------- Ionic step        1  -------------------------------------------




--------------------------------------- Iteration      1(   1)  ---------------------------------------


    POTLOK:  cpu time      0.1784: real time      0.1784
    SETDIJ:  cpu time      0.5881: real time      0.5885
     EDDAV:  cpu time     34.4784: real time     34.4890
       DOS:  cpu time      0.0016: real time      0.0017
    --------------------------------------------
      LOOP:  cpu time     35.2464: real time     35.2576

 eigenvalue-minimisations  :  5568
 total energy-change (2. order) : 0.5388052E+04  (-0.1769098E+05)
 number of electron     384.0000000 magnetization 
 augmentation part      384.0000000 magnetization 

 Free energy of the ion-electron system (eV)
  ---------------------------------------------------
  alpha Z        PSCENC =      1215.52124893
  Ewald energy   TEWEN  =    -28165.03218249
  -Hartree energ DENC   =    -12219.15397458
  -exchange      EXHF   =         0.00000000
  -V(xc)+E(xc)   XCENC  =      1227.12024953
  PAW double counting   =     34040.00696010   -33495.80632930
  entropy T*S    EENTRO =        -0.00460044
  eigenvalues    EBANDS =      2443.74911900
  atomic energy  EATOM  =     40341.65184589
  Solvation  Ediel_sol  =         0.00000000
  ---------------------------------------------------
  free energy    TOTEN  =      5388.05233664 eV

  energy without entropy =     5388.05693709  energy(sigma->0) =     5388.05463687


--------------------------------------------------------------------------------------------------------




--------------------------------------- Iteration      1(   2)  ---------------------------------------


     EDDAV:  cpu time     34.7906: real time     34.8005
       DOS:  cpu time      0.0013: real time      0.0014
    --------------------------------------------
      LOOP:  cpu time     34.7919: real time     34.8019

 eigenvalue-minimisations  :  5624
 total energy-change (2. order) :-0.4514133E+04  (-0.4380594E+04)
 number of electron     384.0000000 magnetization 
 augmentation part      384.0000000 magnetization 

 Free energy of the ion-electron system (eV)
  ---------------------------------------------------
  alpha Z        PSCENC =      1215.52124893
  Ewald energy   TEWEN  =    -28165.03218249
  -Hartree energ DENC   =    -12219.15397458
  -exchange      EXHF   =         0.00000000
  -V(xc)+E(xc)   XCENC  =      1227.12024953
  PAW double counting   =     34040.00696010   -33495.80632930
  entropy T*S    EENTRO =        -0.01613556
  eigenvalues    EBANDS =     -2070.37221569
  atomic energy  EATOM  =     40341.65184589
  Solvation  Ediel_sol  =         0.00000000
  ---------------------------------------------------
  free energy    TOTEN  =       873.91946684 eV

  energy without entropy =      873.93560239  energy(sigma->0) =      873.92753461


--------------------------------------------------------------------------------------------------------




--------------------------------------- Iteration      1(   3)  ---------------------------------------


     EDDAV:  cpu time     37.3894: real time     37.4058
       DOS:  cpu time      0.0010: real time      0.0011
    --------------------------------------------
      LOOP:  cpu time     37.3904: real time     37.4069

 eigenvalue-minimisations  :  6216
 total energy-change (2. order) :-0.9982462E+03  (-0.9342429E+03)
 number of electron     384.0000000 magnetization 
 augmentation part      384.0000000 magnetization 

 Free energy of the ion-electron system (eV)
  ---------------------------------------------------
  alpha Z        PSCENC =      1215.52124893
  Ewald energy   TEWEN  =    -28165.03218249
  -Hartree energ DENC   =    -12219.15397458
  -exchange      EXHF   =         0.00000000
  -V(xc)+E(xc)   XCENC  =      1227.12024953
  PAW double counting   =     34040.00696010   -33495.80632930
  entropy T*S    EENTRO =        -0.00000000
  eigenvalues    EBANDS =     -3068.63452844
  atomic energy  EATOM  =     40341.65184589
  Solvation  Ediel_sol  =         0.00000000
  ---------------------------------------------------
  free energy    TOTEN  =      -124.32671035 eV

  energy without entropy =     -124.32671035  energy(sigma->0) =     -124.32671035


--------------------------------------------------------------------------------------------------------




--------------------------------------- Iteration      1(   4)  ---------------------------------------


     EDDAV:  cpu time     38.8489: real time     38.8610
       DOS:  cpu time      0.0016: real time      0.0017
    --------------------------------------------
      LOOP:  cpu time     38.8505: real time     38.8626

 eigenvalue-minimisations  :  6552
 total energy-change (2. order) :-0.1136709E+03  (-0.1101127E+03)
 number of electron     384.0000000 magnetization 
 augmentation part      384.0000000 magnetization 

 Free energy of the ion-electron system (eV)
  ---------------------------------------------------
  alpha Z        PSCENC =      1215.52124893
  Ewald energy   TEWEN  =    -28165.03218249
  -Hartree energ DENC   =    -12219.15397458
  -exchange      EXHF   =         0.00000000
  -V(xc)+E(xc)   XCENC  =      1227.12024953
  PAW double counting   =     34040.00696010   -33495.80632930
  entropy T*S    EENTRO =        -0.00000000
  eigenvalues    EBANDS =     -3182.30545593
  atomic energy  EATOM  =     40341.65184589
  Solvation  Ediel_sol  =         0.00000000
  ---------------------------------------------------
  free energy    TOTEN  =      -237.99763785 eV

  energy without entropy =     -237.99763785  energy(sigma->0) =     -237.99763785


--------------------------------------------------------------------------------------------------------




--------------------------------------- Iteration      1(   5)  ---------------------------------------


     EDDAV:  cpu time     39.8592: real time     39.8661
       DOS:  cpu time      0.0015: real time      0.0017
    CHARGE:  cpu time      1.1941: real time      1.1944
    MIXING:  cpu time      0.0064: real time      0.0064
    --------------------------------------------
      LOOP:  cpu time     41.0613: real time     41.0685

 eigenvalue-minimisations  :  6776
 total energy-change (2. order) :-0.5552982E+01  (-0.5485875E+01)
 number of electron     384.0000011 magnetization 
 augmentation part       98.6114648 magnetization 

 Broyden mixing:
  rms(total) = 0.34396E+01    rms(broyden)= 0.34389E+01
  rms(prec ) = 0.43758E+01
  weight for this iteration     100.00

 Free energy of the ion-electron system (eV)
  ---------------------------------------------------
  alpha Z        PSCENC =      1215.52124893
  Ewald energy   TEWEN  =    -28165.03218249
  -Hartree energ DENC   =    -12219.15397458
  -exchange      EXHF   =         0.00000000
  -V(xc)+E(xc)   XCENC  =      1227.12024953
  PAW double counting   =     34040.00696010   -33495.80632930
  entropy T*S    EENTRO =        -0.00000000
  eigenvalues    EBANDS =     -3187.85843817
  atomic energy  EATOM  =     40341.65184589
  Solvation  Ediel_sol  =         0.00000000
  ---------------------------------------------------
  free energy    TOTEN  =      -243.55062009 eV

  energy without entropy =     -243.55062009  energy(sigma->0) =     -243.55062009


--------------------------------------------------------------------------------------------------------




--------------------------------------- Iteration      1(   6)  ---------------------------------------


    POTLOK:  cpu time      0.1762: real time      0.1762
    SETDIJ:  cpu time      0.6186: real time      0.6188
     EDDAV:  cpu time     43.5506: real time     43.5647
       DOS:  cpu time      0.0021: real time      0.0022
    CHARGE:  cpu time      1.2108: real time      1.2116
    MIXING:  cpu time      0.0059: real time      0.0059
    --------------------------------------------
      LOOP:  cpu time     45.5641: real time     45.5794

 eigenvalue-minimisations  :  7616
 total energy-change (2. order) : 0.3518239E+02  (-0.1590054E+02)
 number of electron     384.0000010 magnetization 
 augmentation part       94.9540750 magnetization 

 Broyden mixing:
  rms(total) = 0.14952E+01    rms(broyden)= 0.14931E+01
  rms(prec ) = 0.17791E+01
  weight for this iteration     100.00

 eigenvalues of (default mixing * dielectric matrix)
  average eigenvalue GAMMA=   0.7312
  0.7312

 Free energy of the ion-electron system (eV)
  ---------------------------------------------------
  alpha Z        PSCENC =      1215.52124893
  Ewald energy   TEWEN  =    -28165.03218249
  -Hartree energ DENC   =    -12459.41491517
  -exchange      EXHF   =         0.00000000
  -V(xc)+E(xc)   XCENC  =      1247.27385271
  PAW double counting   =     34449.65700321   -33858.15005545
  entropy T*S    EENTRO =        -0.00000000
  eigenvalues    EBANDS =     -2979.87503200
  atomic energy  EATOM  =     40341.65184589
  Solvation  Ediel_sol  =         0.00000000
  ---------------------------------------------------
  free energy    TOTEN  =      -208.36823436 eV

  energy without entropy =     -208.36823436  energy(sigma->0) =     -208.36823436


--------------------------------------------------------------------------------------------------------




--------------------------------------- Iteration      1(   7)  ---------------------------------------


    POTLOK:  cpu time      0.1742: real time      0.1743
    SETDIJ:  cpu time      0.6220: real time      0.6220
     EDDAV:  cpu time     37.2513: real time     37.2616
       DOS:  cpu time      0.0018: real time      0.0019
    CHARGE:  cpu time      1.2082: real time      1.2090
    MIXING:  cpu time      0.0075: real time      0.0075
    --------------------------------------------
      LOOP:  cpu time     39.2651: real time     39.2763

 eigenvalue-minimisations  :  6176
 total energy-change (2. order) : 0.9024067E+00  (-0.2878182E+01)
 number of electron     384.0000010 magnetization 
 augmentation part       95.0197279 magnetization 

 Broyden mixing:
  rms(total) = 0.79081E+00    rms(broyden)= 0.79080E+00
  rms(prec ) = 0.86534E+00
  weight for this iteration     100.00

 eigenvalues of (default mixing * dielectric matrix)
  average eigenvalue GAMMA=   1.1323
  0.9685  1.2962

 Free energy of the ion-electron system (eV)
  ---------------------------------------------------
  alpha Z        PSCENC =      1215.52124893
  Ewald energy   TEWEN  =    -28165.03218249
  -Hartree energ DENC   =    -12356.76468223
  -exchange      EXHF   =         0.00000000
  -V(xc)+E(xc)   XCENC  =      1243.02439553
  PAW double counting   =     35039.05088880   -34440.43216562
  entropy T*S    EENTRO =        -0.00056676
  eigenvalues    EBANDS =     -3084.48460976
  atomic energy  EATOM  =     40341.65184589
  Solvation  Ediel_sol  =         0.00000000
  ---------------------------------------------------
  free energy    TOTEN  =      -207.46582770 eV

  energy without entropy =     -207.46526094  energy(sigma->0) =     -207.46554432


--------------------------------------------------------------------------------------------------------




--------------------------------------- Iteration      1(   8)  ---------------------------------------


    POTLOK:  cpu time      0.1752: real time      0.1753
    SETDIJ:  cpu time      0.6172: real time      0.6176
     EDDAV:  cpu time     43.0928: real time     43.0943
       DOS:  cpu time      0.0018: real time      0.0019
    CHARGE:  cpu time      1.2133: real time      1.2134
    MIXING:  cpu time      0.0060: real time      0.0060
    --------------------------------------------
      LOOP:  cpu time     45.1063: real time     45.1085

 eigenvalue-minimisations  :  7512
 total energy-change (2. order) :-0.1569255E+00  (-0.5766674E+00)
 number of electron     384.0000010 magnetization 
 augmentation part       95.3328028 magnetization 

 Broyden mixing:
  rms(total) = 0.33022E+00    rms(broyden)= 0.33001E+00
  rms(prec ) = 0.38931E+00
  weight for this iteration     100.00

 eigenvalues of (default mixing * dielectric matrix)
  average eigenvalue GAMMA=   1.2884
  2.1591  0.8531  0.8531

 Free energy of the ion-electron system (eV)
  ---------------------------------------------------
  alpha Z        PSCENC =      1215.52124893
  Ewald energy   TEWEN  =    -28165.03218249
  -Hartree energ DENC   =    -12345.04204568
  -exchange      EXHF   =         0.00000000
  -V(xc)+E(xc)   XCENC  =      1242.18900755
  PAW double counting   =     35327.06831305   -34721.63749235
  entropy T*S    EENTRO =        -0.00175068
  eigenvalues    EBANDS =     -3102.33969745
  atomic energy  EATOM  =     40341.65184589
  Solvation  Ediel_sol  =         0.00000000
  ---------------------------------------------------
  free energy    TOTEN  =      -207.62275323 eV

  energy without entropy =     -207.62100255  energy(sigma->0) =     -207.62187789


--------------------------------------------------------------------------------------------------------




--------------------------------------- Iteration      1(   9)  ---------------------------------------


    POTLOK:  cpu time      0.1766: real time      0.1767
    SETDIJ:  cpu time      0.6205: real time      0.6205
     EDDAV:  cpu time     41.8017: real time     41.8063
       DOS:  cpu time      0.0019: real time      0.0020
    CHARGE:  cpu time      1.2115: real time      1.2127
    MIXING:  cpu time      0.0064: real time      0.0064
    --------------------------------------------
      LOOP:  cpu time     43.8186: real time     43.8245

 eigenvalue-minimisations  :  7224
 total energy-change (2. order) : 0.5089274E-01  (-0.5887366E-01)
 number of electron     384.0000010 magnetization 
 augmentation part       94.9963257 magnetization 

 Broyden mixing:
  rms(total) = 0.15469E+00    rms(broyden)= 0.15466E+00
  rms(prec ) = 0.18722E+00
  weight for this iteration     100.00

 eigenvalues of (default mixing * dielectric matrix)
  average eigenvalue GAMMA=   1.2834
  2.4378  0.8205  0.8205  1.0548

 Free energy of the ion-electron system (eV)
  ---------------------------------------------------
  alpha Z        PSCENC =      1215.52124893
  Ewald energy   TEWEN  =    -28165.03218249
  -Hartree energ DENC   =    -12367.78026718
  -exchange      EXHF   =         0.00000000
  -V(xc)+E(xc)   XCENC  =      1243.74903896
  PAW double counting   =     35634.97673307   -35023.81770252
  entropy T*S    EENTRO =        -0.00044892
  eigenvalues    EBANDS =     -3086.84012623
  atomic energy  EATOM  =     40341.65184589
  Solvation  Ediel_sol  =         0.00000000
  ---------------------------------------------------
  free energy    TOTEN  =      -207.57186049 eV

  energy without entropy =     -207.57141158  energy(sigma->0) =     -207.57163603


--------------------------------------------------------------------------------------------------------




--------------------------------------- Iteration      1(  10)  ---------------------------------------


    POTLOK:  cpu time      0.1751: real time      0.1751
    SETDIJ:  cpu time      0.6171: real time      0.6186
     EDDAV:  cpu time     41.0164: real time     41.0164
       DOS:  cpu time      0.0021: real time      0.0022
    CHARGE:  cpu time      1.2124: real time      1.2126
    MIXING:  cpu time      0.0065: real time      0.0065
    --------------------------------------------
      LOOP:  cpu time     43.0295: real time     43.0314

 eigenvalue-minimisations  :  7048
 total energy-change (2. order) : 0.1723409E-01  (-0.2009422E-01)
 number of electron     384.0000010 magnetization 
 augmentation part       95.0102635 magnetization 

 Broyden mixing:
  rms(total) = 0.41920E-01    rms(broyden)= 0.41889E-01
  rms(prec ) = 0.43622E-01
  weight for this iteration     100.00

 eigenvalues of (default mixing * dielectric matrix)
  average eigenvalue GAMMA=   1.1567
  2.3749  0.8208  0.8208  0.8834  0.8834

 Free energy of the ion-electron system (eV)
  ---------------------------------------------------
  alpha Z        PSCENC =      1215.52124893
  Ewald energy   TEWEN  =    -28165.03218249
  -Hartree energ DENC   =    -12358.41762899
  -exchange      EXHF   =         0.00000000
  -V(xc)+E(xc)   XCENC  =      1243.39619817
  PAW double counting   =     35715.72968098   -35104.04823745
  entropy T*S    EENTRO =        -0.00112472
  eigenvalues    EBANDS =     -3096.35442672
  atomic energy  EATOM  =     40341.65184589
  Solvation  Ediel_sol  =         0.00000000
  ---------------------------------------------------
  free energy    TOTEN  =      -207.55462640 eV

  energy without entropy =     -207.55350168  energy(sigma->0) =     -207.55406404


--------------------------------------------------------------------------------------------------------




--------------------------------------- Iteration      1(  11)  ---------------------------------------


    POTLOK:  cpu time      0.1756: real time      0.1756
    SETDIJ:  cpu time      0.6209: real time      0.6209
     EDDAV:  cpu time     43.3745: real time     43.3777
       DOS:  cpu time      0.0019: real time      0.0021
    CHARGE:  cpu time      1.2102: real time      1.2117
    MIXING:  cpu time      0.0070: real time      0.0070
    --------------------------------------------
      LOOP:  cpu time     45.3900: real time     45.3950

 eigenvalue-minimisations  :  7584
 total energy-change (2. order) :-0.2668115E-02  (-0.2289375E-02)
 number of electron     384.0000010 magnetization 
 augmentation part       95.0129446 magnetization 

 Broyden mixing:
  rms(total) = 0.33019E-01    rms(broyden)= 0.33016E-01
  rms(prec ) = 0.35121E-01
  weight for this iteration     100.00

 eigenvalues of (default mixing * dielectric matrix)
  average eigenvalue GAMMA=   1.3741
  2.1232  2.1232  0.8228  0.8228  1.1763  1.1763

 Free energy of the ion-electron system (eV)
  ---------------------------------------------------
  alpha Z        PSCENC =      1215.52124893
  Ewald energy   TEWEN  =    -28165.03218249
  -Hartree energ DENC   =    -12358.47182077
  -exchange      EXHF   =         0.00000000
  -V(xc)+E(xc)   XCENC  =      1243.41455634
  PAW double counting   =     35690.57641483   -35079.42452784
  entropy T*S    EENTRO =        -0.00110384
  eigenvalues    EBANDS =     -3095.79172557
  atomic energy  EATOM  =     40341.65184589
  Solvation  Ediel_sol  =         0.00000000
  ---------------------------------------------------
  free energy    TOTEN  =      -207.55729452 eV

  energy without entropy =     -207.55619068  energy(sigma->0) =     -207.55674260


--------------------------------------------------------------------------------------------------------




--------------------------------------- Iteration      1(  12)  ---------------------------------------


    POTLOK:  cpu time      0.1751: real time      0.1757
    SETDIJ:  cpu time      0.6188: real time      0.6197
     EDDAV:  cpu time     41.2911: real time     41.3004
       DOS:  cpu time      0.0017: real time      0.0018
    CHARGE:  cpu time      1.2130: real time      1.2130
    MIXING:  cpu time      0.0069: real time      0.0069
    --------------------------------------------
      LOOP:  cpu time     43.3066: real time     43.3175

 eigenvalue-minimisations  :  7120
 total energy-change (2. order) :-0.1545874E-02  (-0.7115071E-03)
 number of electron     384.0000010 magnetization 
 augmentation part       94.9829878 magnetization 

 Broyden mixing:
  rms(total) = 0.16000E-01    rms(broyden)= 0.15995E-01
  rms(prec ) = 0.18914E-01
  weight for this iteration     100.00

 eigenvalues of (default mixing * dielectric matrix)
  average eigenvalue GAMMA=   1.3799
  2.4888  2.4888  0.8059  0.8059  1.0782  1.0782  0.9138

 Free energy of the ion-electron system (eV)
  ---------------------------------------------------
  alpha Z        PSCENC =      1215.52124893
  Ewald energy   TEWEN  =    -28165.03218249
  -Hartree energ DENC   =    -12359.20944512
  -exchange      EXHF   =         0.00000000
  -V(xc)+E(xc)   XCENC  =      1243.51126135
  PAW double counting   =     35660.36994045   -35050.14497891
  entropy T*S    EENTRO =        -0.00103862
  eigenvalues    EBANDS =     -3094.22549188
  atomic energy  EATOM  =     40341.65184589
  Solvation  Ediel_sol  =         0.00000000
  ---------------------------------------------------
  free energy    TOTEN  =      -207.55884039 eV

  energy without entropy =     -207.55780177  energy(sigma->0) =     -207.55832108


--------------------------------------------------------------------------------------------------------




--------------------------------------- Iteration      1(  13)  ---------------------------------------


    POTLOK:  cpu time      0.1771: real time      0.1771
    SETDIJ:  cpu time      0.6219: real time      0.6219
     EDDAV:  cpu time     38.9797: real time     38.9936
       DOS:  cpu time      0.0017: real time      0.0018
    CHARGE:  cpu time      1.2124: real time      1.2129
    MIXING:  cpu time      0.0066: real time      0.0066
    --------------------------------------------
      LOOP:  cpu time     40.9994: real time     41.0140

 eigenvalue-minimisations  :  6592
 total energy-change (2. order) : 0.6469561E-04  (-0.5853527E-04)
 number of electron     384.0000010 magnetization 
 augmentation part       94.9827772 magnetization 

 Broyden mixing:
  rms(total) = 0.90623E-02    rms(broyden)= 0.90622E-02
  rms(prec ) = 0.10448E-01
  weight for this iteration     100.00

 eigenvalues of (default mixing * dielectric matrix)
  average eigenvalue GAMMA=   1.3509
  2.7705  2.4020  1.0607  1.0607  0.8253  0.8253  0.9315  0.9315

 Free energy of the ion-electron system (eV)
  ---------------------------------------------------
  alpha Z        PSCENC =      1215.52124893
  Ewald energy   TEWEN  =    -28165.03218249
  -Hartree energ DENC   =    -12358.72806952
  -exchange      EXHF   =         0.00000000
  -V(xc)+E(xc)   XCENC  =      1243.49769882
  PAW double counting   =     35650.82659509   -35040.86777611
  entropy T*S    EENTRO =        -0.00104684
  eigenvalues    EBANDS =     -3094.42708946
  atomic energy  EATOM  =     40341.65184589
  Solvation  Ediel_sol  =         0.00000000
  ---------------------------------------------------
  free energy    TOTEN  =      -207.55877569 eV

  energy without entropy =     -207.55772886  energy(sigma->0) =     -207.55825228


--------------------------------------------------------------------------------------------------------




--------------------------------------- Iteration      1(  14)  ---------------------------------------


    POTLOK:  cpu time      0.1760: real time      0.1761
    SETDIJ:  cpu time      0.6206: real time      0.6206
     EDDAV:  cpu time     39.1879: real time     39.1973
       DOS:  cpu time      0.0019: real time      0.0020
    CHARGE:  cpu time      1.2098: real time      1.2113
    MIXING:  cpu time      0.0092: real time      0.0092
    --------------------------------------------
      LOOP:  cpu time     41.2053: real time     41.2164

 eigenvalue-minimisations  :  6640
 total energy-change (2. order) : 0.5698324E-04  (-0.3651596E-04)
 number of electron     384.0000010 magnetization 
 augmentation part       94.9862507 magnetization 

 Broyden mixing:
  rms(total) = 0.39205E-02    rms(broyden)= 0.39187E-02
  rms(prec ) = 0.44804E-02
  weight for this iteration     100.00

 eigenvalues of (default mixing * dielectric matrix)
  average eigenvalue GAMMA=   1.2956
  2.7471  2.3245  1.0997  1.0997  0.9576  0.8223  0.8223  0.8934  0.8934

 Free energy of the ion-electron system (eV)
  ---------------------------------------------------
  alpha Z        PSCENC =      1215.52124893
  Ewald energy   TEWEN  =    -28165.03218249
  -Hartree energ DENC   =    -12358.52976835
  -exchange      EXHF   =         0.00000000
  -V(xc)+E(xc)   XCENC  =      1243.48433270
  PAW double counting   =     35648.12442250   -35038.17786125
  entropy T*S    EENTRO =        -0.00105746
  eigenvalues    EBANDS =     -3094.59969919
  atomic energy  EATOM  =     40341.65184589
  Solvation  Ediel_sol  =         0.00000000
  ---------------------------------------------------
  free energy    TOTEN  =      -207.55871871 eV

  energy without entropy =     -207.55766125  energy(sigma->0) =     -207.55818998


--------------------------------------------------------------------------------------------------------




--------------------------------------- Iteration      1(  15)  ---------------------------------------


    POTLOK:  cpu time      0.1748: real time      0.1750
    SETDIJ:  cpu time      0.6187: real time      0.6190
     EDDAV:  cpu time     46.4292: real time     46.4283
       DOS:  cpu time      0.0019: real time      0.0020
    CHARGE:  cpu time      1.2117: real time      1.2120
    MIXING:  cpu time      0.0073: real time      0.0073
    --------------------------------------------
      LOOP:  cpu time     48.4438: real time     48.4437

 eigenvalue-minimisations  :  8288
 total energy-change (2. order) : 0.1105053E-04  (-0.5549143E-05)
 number of electron     384.0000010 magnetization 
 augmentation part       94.9883700 magnetization 

 Broyden mixing:
  rms(total) = 0.17773E-02    rms(broyden)= 0.17765E-02
  rms(prec ) = 0.20059E-02
  weight for this iteration     100.00

 eigenvalues of (default mixing * dielectric matrix)
  average eigenvalue GAMMA=   1.3089
  2.7379  2.2286  1.6048  1.1286  1.1286  0.9797  0.8153  0.8153  0.8253  0.8253

 Free energy of the ion-electron system (eV)
  ---------------------------------------------------
  alpha Z        PSCENC =      1215.52124893
  Ewald energy   TEWEN  =    -28165.03218249
  -Hartree energ DENC   =    -12358.46649254
  -exchange      EXHF   =         0.00000000
  -V(xc)+E(xc)   XCENC  =      1243.47914392
  PAW double counting   =     35647.79325586   -35037.82432765
  entropy T*S    EENTRO =        -0.00106484
  eigenvalues    EBANDS =     -3094.68013474
  atomic energy  EATOM  =     40341.65184589
  Solvation  Ediel_sol  =         0.00000000
  ---------------------------------------------------
  free energy    TOTEN  =      -207.55870766 eV

  energy without entropy =     -207.55764282  energy(sigma->0) =     -207.55817524


--------------------------------------------------------------------------------------------------------




--------------------------------------- Iteration      1(  16)  ---------------------------------------


    POTLOK:  cpu time      0.1770: real time      0.1772
    SETDIJ:  cpu time      0.6205: real time      0.6205
     EDDAV:  cpu time     39.1451: real time     39.1482
       DOS:  cpu time      0.0016: real time      0.0017
    CHARGE:  cpu time      1.2111: real time      1.2112
    MIXING:  cpu time      0.0075: real time      0.0075
    --------------------------------------------
      LOOP:  cpu time     41.1628: real time     41.1663

 eigenvalue-minimisations  :  6616
 total energy-change (2. order) : 0.3202312E-05  (-0.6857859E-06)
 number of electron     384.0000010 magnetization 
 augmentation part       94.9891005 magnetization 

 Broyden mixing:
  rms(total) = 0.79982E-03    rms(broyden)= 0.79953E-03
  rms(prec ) = 0.91083E-03
  weight for this iteration     100.00

 eigenvalues of (default mixing * dielectric matrix)
  average eigenvalue GAMMA=   1.3487
  2.7660  2.3693  2.0811  1.4124  0.9544  0.9730  0.9730  0.8155  0.8155  0.8375
  0.8375

 Free energy of the ion-electron system (eV)
  ---------------------------------------------------
  alpha Z        PSCENC =      1215.52124893
  Ewald energy   TEWEN  =    -28165.03218249
  -Hartree energ DENC   =    -12358.42625672
  -exchange      EXHF   =         0.00000000
  -V(xc)+E(xc)   XCENC  =      1243.47622179
  PAW double counting   =     35647.27161256   -35037.28848558
  entropy T*S    EENTRO =        -0.00106858
  eigenvalues    EBANDS =     -3094.73164027
  atomic energy  EATOM  =     40341.65184589
  Solvation  Ediel_sol  =         0.00000000
  ---------------------------------------------------
  free energy    TOTEN  =      -207.55870446 eV

  energy without entropy =     -207.55763587  energy(sigma->0) =     -207.55817017


--------------------------------------------------------------------------------------------------------




--------------------------------------- Iteration      1(  17)  ---------------------------------------


    POTLOK:  cpu time      0.1761: real time      0.1764
[...]
    180       4.2086      2.00000
    181       4.5395      2.00000
    182       4.5395      2.00000
    183       4.5462      2.00000
    184       4.5635      2.00000
    185       4.8505      2.00000
    186       4.8505      2.00000
    187       4.8552      2.00000
    188       4.8566      2.00000
    189       4.9427      2.00000
    190       4.9427      2.00000
    191       4.9472      2.00000
    192       4.9538      2.00000
    193       6.8508      0.00000
    194       6.8670      0.00000
    195       6.8670      0.00000
    196       6.8952      0.00000
    197       7.5209      0.00000
    198       7.5463      0.00000
    199       7.5463      0.00000
    200       7.5728      0.00000
    201       8.1408      0.00000
    202       8.1609      0.00000
    203       8.1731      0.00000
    204       8.1731      0.00000
    205       8.3616      0.00000
    206       8.3616      0.00000
    207       8.3898      0.00000
    208       8.4038      0.00000
    209       8.4308      0.00000
    210       8.4400      0.00000
    211       8.4686      0.00000
    212       8.4686      0.00000
    213       8.5121      0.00000
    214       8.5121      0.00000
    215       8.5281      0.00000
    216       8.5525      0.00000
    217       9.1408      0.00000
    218       9.1408      0.00000
    219       9.1510      0.00000
    220       9.1553      0.00000
    221       9.2842      0.00000
    222       9.2851      0.00000
    223       9.2851      0.00000
    224       9.3079      0.00000
    225       9.8553      0.00000
    226       9.8553      0.00000
    227       9.9076      0.00000
    228       9.9167      0.00000
    229       9.9307      0.00000
    230       9.9827      0.00000
    231       9.9850      0.00000
    232       9.9850      0.00000


--------------------------------------------------------------------------------------------------------


 soft charge-density along one line, spin component           1
         0         1         2         3         4         5         6         7         8         9
 total charge-density along one line
 
 pseudopotential strength for first ion, spin component:           1
-18.514   0.001   0.001   0.001  -0.000   4.439  -0.001  -0.000
  0.001 -18.504   0.001  -0.001  -0.002  -0.001   4.436  -0.000
  0.001   0.001 -18.526   0.001   0.000  -0.000  -0.000   4.448
  0.001  -0.001   0.001 -18.504   0.002  -0.001   0.000  -0.000
 -0.000  -0.002   0.000   0.002 -18.495   0.000   0.001  -0.000
  4.439  -0.001  -0.000  -0.001   0.000   5.567   0.000   0.000
 -0.001   4.436  -0.000   0.000   0.001   0.000   5.567   0.000
 -0.000  -0.000   4.448  -0.000  -0.000   0.000   0.000   5.566
 -0.001   0.000  -0.000   4.436  -0.001   0.000  -0.000   0.000
  0.000   0.001  -0.000  -0.001   4.429   0.000  -0.000   0.000
 -0.000   0.000   0.004   0.000   0.000   0.000  -0.000   0.005
  0.000  -0.000  -0.005  -0.000   0.000  -0.000   0.001  -0.007
  0.000  -0.016  -0.000  -0.000  -0.000   0.000   0.003   0.000
 -0.000   0.000  -0.018   0.000  -0.000  -0.000   0.000   0.002
  0.000  -0.000  -0.000  -0.016   0.000   0.000  -0.000   0.000
  0.000  -0.026  -0.000  -0.000  -0.000   0.000   0.002   0.000
 -0.000   0.000  -0.029   0.000  -0.000  -0.000   0.000  -0.001
  0.000  -0.000  -0.000  -0.026   0.000   0.000  -0.000   0.000
 total augmentation occupancy for first ion, spin component:           1
  1.998   0.000   0.000   0.000   0.000  -0.007   0.000   0.000   0.000   0.000  -0.000  -0.000   0.000  -0.000   0.000  -0.000
  0.000   1.997  -0.000  -0.000   0.000   0.000  -0.007  -0.000  -0.000  -0.000   0.000   0.000   0.032   0.000  -0.000  -0.011
  0.000  -0.000   1.999  -0.000  -0.000   0.000  -0.000  -0.005  -0.000   0.000   0.001   0.000   0.000   0.029   0.000  -0.000
  0.000  -0.000  -0.000   1.997  -0.000   0.000  -0.000  -0.000  -0.007   0.000   0.000   0.000  -0.000   0.000   0.032   0.000
  0.000   0.000  -0.000  -0.000   1.997   0.000  -0.000   0.000   0.000  -0.010   0.000   0.000   0.000   0.000  -0.000  -0.000
 -0.007   0.000   0.000   0.000   0.000   0.016   0.000   0.000   0.000   0.000  -0.000  -0.000   0.002  -0.001   0.002  -0.000
  0.000  -0.007  -0.000  -0.000  -0.000   0.000   0.036   0.000  -0.000  -0.001  -0.000   0.001  -0.076  -0.000  -0.001   0.010
  0.000  -0.000  -0.005  -0.000   0.000   0.000   0.000   0.013   0.000  -0.000   0.012  -0.005  -0.000   0.009  -0.000   0.000
  0.000  -0.000  -0.000  -0.007   0.000   0.000  -0.000   0.000   0.036   0.001  -0.000   0.001  -0.001  -0.000  -0.076   0.000
  0.000  -0.000   0.000   0.000  -0.010   0.000  -0.001  -0.000   0.001   0.046   0.000  -0.000   0.002  -0.000  -0.002  -0.000
 -0.000   0.000   0.001   0.000   0.000  -0.000  -0.000   0.012  -0.000   0.000   2.043  -0.031   0.000   0.156   0.000  -0.000
 -0.000   0.000   0.000   0.000   0.000  -0.000   0.001  -0.005   0.001  -0.000  -0.031   0.026   0.000  -0.070   0.000   0.000
  0.000   0.032   0.000  -0.000   0.000   0.002  -0.076  -0.000  -0.001   0.002   0.000   0.000   0.832   0.007  -0.005  -0.069
 -0.000   0.000   0.029   0.000   0.000  -0.001  -0.000   0.009  -0.000  -0.000   0.156  -0.070   0.007   0.885   0.007  -0.001
  0.000  -0.000   0.000   0.032  -0.000   0.002  -0.001  -0.000  -0.076  -0.002   0.000   0.000  -0.005   0.007   0.832   0.000
 -0.000  -0.011  -0.000   0.000  -0.000  -0.000   0.010   0.000   0.000  -0.000  -0.000   0.000  -0.069  -0.001   0.000   0.007
  0.000   0.000  -0.018   0.000  -0.000   0.000   0.000  -0.000   0.000   0.000  -0.012   0.007  -0.001  -0.066  -0.001   0.000
 -0.000   0.000  -0.000  -0.011   0.000  -0.000   0.000   0.000   0.010   0.000  -0.000   0.000   0.000  -0.001  -0.069  -0.000


------------------------ aborting loop because EDIFF is reached ----------------------------------------


    CHARGE:  cpu time      1.2082: real time      1.2095
    FORLOC:  cpu time      0.0181: real time      0.0181
    FORNL :  cpu time      9.0348: real time      9.0410
    STRESS:  cpu time     19.9673: real time     19.9669
    FORCOR:  cpu time      0.1793: real time      0.1795
    FORHAR:  cpu time      0.0592: real time      0.0592
    MIXING:  cpu time      0.0054: real time      0.0054
    OFIELD:  cpu time      0.0001: real time      0.0001

  FORCE on cell =-STRESS in cart. coord.  units (eV):
  Direction    XX          YY          ZZ          XY          YZ          ZX
  --------------------------------------------------------------------------------------
  Alpha Z  1215.52125  1215.52125  1215.52125
  Ewald   -7169.26571 -7169.26571-13826.61296     0.00000    -0.00000     0.00000
  Hartree  6023.94395  6023.94395   310.51926    -0.00000    -0.00000    -0.00000
  E(xc)   -1818.82465 -1818.82465 -1821.10894    -0.00000    -0.00000    -0.00000
  Local   -6932.60654 -6932.60654  5440.30746     0.00000     0.00000     0.00000
  n-local  1562.86812  1572.60025  1568.28928     0.26107    -0.05743     0.08380
  augment  2176.17836  2176.17836  2161.69184    -0.00000     0.00000     0.00000
  Kinetic  4900.32343  4910.06202  4927.56492    -3.10262     0.42276    -0.45082
  Fock        0.00000     0.00000     0.00000     0.00000     0.00000     0.00000
  -------------------------------------------------------------------------------------
  Total     -32.12642   -32.12642   -23.82790     0.00000     0.00000    -0.00000
  in kB     -61.93655   -61.93655   -45.93782     0.00000     0.00000    -0.00000
  external pressure =      -56.60 kB  Pullay stress =        0.00 kB


 VOLUME and BASIS-vectors are now :
 -----------------------------------------------------------------------------
  energy-cutoff  :      520.00
  volume of cell :      831.05
      direct lattice vectors                 reciprocal lattice vectors
     8.075363820  0.000000000  0.000000000     0.123833430  0.000000000  0.000000000
     0.000000000  8.075363820  0.000000000     0.000000000  0.123833430  0.000000000
     0.000000000  0.000000000 12.743882861     0.000000000  0.000000000  0.078469020

  length of vectors
     8.075363820  8.075363820 12.743882861     0.123833430  0.123833430  0.078469020


 FORCES acting on ions
    electron-ion (+dipol)            ewald-force                    non-local-force                 convergence-correction
 -----------------------------------------------------------------------------------------------
   -.528E+01 -.528E+01 -.453E+03   0.524E+01 0.524E+01 0.463E+03   0.381E-01 0.381E-01 -.101E+02   0.109E-06 0.109E-06 -.393E-06
   0.528E+01 -.528E+01 -.453E+03   -.524E+01 0.524E+01 0.463E+03   -.381E-01 0.381E-01 -.101E+02   -.109E-06 0.109E-06 -.393E-06
   -.528E+01 0.528E+01 -.453E+03   0.524E+01 -.524E+01 0.463E+03   0.381E-01 -.381E-01 -.101E+02   0.109E-06 -.109E-06 -.393E-06
   0.528E+01 0.528E+01 -.453E+03   -.524E+01 -.524E+01 0.463E+03   -.381E-01 -.381E-01 -.101E+02   -.109E-06 -.109E-06 -.393E-06
   0.151E-11 -.896E-12 0.477E+03   -.142E-12 -.284E-13 -.486E+03   0.155E-17 -.207E-18 0.956E+01   -.743E-11 -.426E-11 -.547E-05
   0.807E-12 0.249E-11 0.482E+03   0.142E-13 -.533E-14 -.492E+03   0.255E-18 0.854E-19 0.100E+02   0.690E-11 -.167E-11 -.322E-06
   0.152E-11 0.437E-11 0.482E+03   0.142E-13 0.284E-13 -.492E+03   0.511E-18 -.501E-18 0.100E+02   -.176E-11 0.852E-12 -.322E-06
   0.837E-12 -.582E-12 0.489E+03   0.853E-13 0.799E-13 -.499E+03   0.127E-17 0.516E-18 0.105E+02   0.126E-11 0.142E-11 0.486E-05
   0.145E-11 0.718E-12 -.477E+03   -.128E-12 0.568E-13 0.486E+03   -.143E-17 -.147E-18 -.956E+01   -.536E-11 0.289E-11 0.547E-05
   0.734E-12 -.232E-11 -.482E+03   0.142E-12 0.128E-12 0.492E+03   -.592E-18 0.960E-19 -.100E+02   0.484E-11 0.332E-11 0.322E-06
   0.147E-11 0.784E-11 -.482E+03   -.114E-12 0.853E-13 0.492E+03   0.241E-18 -.440E-18 -.100E+02   -.350E-11 -.337E-11 0.322E-06
   0.768E-12 0.194E-11 -.489E+03   0.284E-13 0.355E-14 0.499E+03   -.425E-18 0.871E-18 -.105E+02   0.306E-11 -.437E-12 -.486E-05
   -.528E+01 -.528E+01 0.453E+03   0.524E+01 0.524E+01 -.463E+03   0.381E-01 0.381E-01 0.101E+02   0.109E-06 0.109E-06 0.393E-06
   0.528E+01 -.528E+01 0.453E+03   -.524E+01 0.524E+01 -.463E+03   -.381E-01 0.381E-01 0.101E+02   -.109E-06 0.109E-06 0.393E-06
   -.528E+01 0.528E+01 0.453E+03   0.524E+01 -.524E+01 -.463E+03   0.381E-01 -.381E-01 0.101E+02   0.109E-06 -.109E-06 0.393E-06
   0.528E+01 0.528E+01 0.453E+03   -.524E+01 -.524E+01 -.463E+03   -.381E-01 -.381E-01 0.101E+02   -.109E-06 -.109E-06 0.393E-06
   0.760E-13 0.599E-13 0.359E-12   0.114E-12 -.284E-13 -.497E-13   0.675E-27 0.963E-27 0.185E-26   -.310E-11 -.503E-12 0.260E-11
   0.103E-12 0.206E-11 0.647E-12   0.284E-13 0.284E-13 -.497E-13   -.527E-27 -.205E-26 0.190E-26   -.928E-13 -.200E-12 0.204E-11
   0.765E-13 -.586E-12 0.297E-12   0.000E+00 -.284E-13 -.604E-13   0.515E-27 -.109E-26 -.480E-27   0.513E-13 0.562E-12 0.249E-11
   -.486E+01 -.486E+01 0.314E-06   0.488E+01 0.488E+01 0.122E-12   -.221E-01 -.221E-01 0.666E-20   -.187E-05 -.187E-05 -.365E-11
   0.486E+01 -.486E+01 0.100E-11   -.488E+01 0.488E+01 0.100E-12   0.221E-01 -.221E-01 0.975E-20   0.187E-05 -.187E-05 -.551E-11
   -.486E+01 0.486E+01 0.175E-12   0.488E+01 -.488E+01 0.104E-12   -.221E-01 0.221E-01 0.225E-20   -.187E-05 0.187E-05 -.285E-11
   0.486E+01 0.486E+01 -.314E-06   -.488E+01 -.488E+01 0.932E-13   0.221E-01 0.221E-01 0.407E-20   0.187E-05 0.187E-05 -.281E-11
   0.644E-12 -.672E+00 0.794E+01   0.711E-13 0.489E+00 -.819E+01   -.126E-18 0.183E+00 0.250E+00   -.802E-12 0.194E-05 -.509E-06
   0.376E-12 -.128E+00 0.438E+01   -.284E-13 -.652E-01 -.412E+01   -.104E-18 0.193E+00 -.258E+00   0.435E-12 0.193E-05 -.643E-06
   0.638E-12 0.672E+00 0.794E+01   0.568E-13 -.489E+00 -.819E+01   -.869E-19 -.183E+00 0.250E+00   -.115E-11 -.194E-05 -.509E-06
   0.377E-12 0.128E+00 0.438E+01   0.426E-13 0.652E-01 -.412E+01   0.145E-18 -.193E+00 -.258E+00   0.790E-12 -.193E-05 -.643E-06
   -.672E+00 0.560E-12 0.794E+01   0.489E+00 -.711E-14 -.819E+01   0.183E+00 0.266E-18 0.250E+00   0.194E-05 -.794E-12 -.509E-06
   0.672E+00 -.632E-12 0.794E+01   -.489E+00 -.142E-13 -.819E+01   -.183E+00 0.675E-19 0.250E+00   -.194E-05 -.207E-11 -.509E-06
   -.128E+00 -.287E-12 0.438E+01   -.652E-01 0.391E-13 -.412E+01   0.193E+00 -.133E-18 -.258E+00   0.193E-05 -.178E-12 -.643E-06
   0.128E+00 0.112E-11 0.438E+01   0.652E-01 0.568E-13 -.412E+01   -.193E+00 -.995E-19 -.258E+00   -.193E-05 -.735E-12 -.643E-06
   -.672E+00 0.771E-12 -.794E+01   0.489E+00 -.711E-14 0.819E+01   0.183E+00 0.309E-18 -.250E+00   0.194E-05 0.101E-11 0.509E-06
   0.672E+00 -.361E-12 -.794E+01   -.489E+00 0.284E-13 0.819E+01   -.183E+00 0.268E-18 -.250E+00   -.194E-05 0.645E-12 0.509E-06
   -.128E+00 0.103E-11 -.438E+01   -.652E-01 0.675E-13 0.412E+01   0.193E+00 -.349E-18 0.258E+00   0.193E-05 -.672E-12 0.643E-06
   0.128E+00 0.514E-11 -.438E+01   0.652E-01 0.853E-13 0.412E+01   -.193E+00 0.115E-18 0.258E+00   -.193E-05 -.264E-11 0.643E-06
   0.616E-12 -.672E+00 -.794E+01   0.995E-13 0.489E+00 0.819E+01   0.241E-18 0.183E+00 -.250E+00   -.333E-11 0.194E-05 0.509E-06
   0.367E-12 -.128E+00 -.438E+01   -.995E-13 -.652E-01 0.412E+01   -.113E-18 0.193E+00 0.258E+00   0.314E-11 0.193E-05 0.643E-06
   0.619E-12 0.672E+00 -.794E+01   0.284E-13 -.489E+00 0.819E+01   0.126E-18 -.183E+00 -.250E+00   -.256E-11 -.194E-05 0.509E-06
   0.366E-12 0.128E+00 -.438E+01   0.142E-13 0.652E-01 0.412E+01   0.308E-19 -.193E+00 0.258E+00   0.236E-11 -.193E-05 0.643E-06
   0.981E-13 0.435E-13 0.498E-12   0.568E-13 0.142E-13 -.131E-12   0.109E-26 0.425E-27 -.166E-26   0.319E-11 -.147E-12 0.223E-11
 -----------------------------------------------------------------------------------------------
   0.197E-10 0.130E-10 -.217E-09   0.213E-12 0.302E-12 -.345E-12   0.285E-18 0.278E-16 -.183E-14   0.480E-12 0.243E-11 0.333E-10
 
 
 POSITION                                       TOTAL-FORCE (eV/Angst)
 -----------------------------------------------------------------------------------
      2.00994      2.00994     10.83028         0.000001      0.000001      0.000003
      6.06542      2.00994     10.83028        -0.000001      0.000001      0.000003
      2.00994      6.06542     10.83028         0.000001     -0.000001      0.000003
      6.06542      6.06542     10.83028        -0.000001     -0.000001      0.000003
      8.07536      0.00000      8.29158        -0.000000     -0.000000      0.000006
      4.03768      0.00000      8.30983        -0.000000     -0.000000      0.000002
      8.07536      4.03768      8.30983        -0.000000     -0.000000      0.000002
      4.03768      4.03768      8.32904        -0.000000     -0.000000     -0.000004
      8.07536      0.00000      4.45231        -0.000000     -0.000000     -0.000006
      4.03768      0.00000      4.43405        -0.000000     -0.000000     -0.000002
      8.07536      4.03768      4.43405        -0.000000     -0.000000     -0.000002
      4.03768      4.03768      4.41484        -0.000000     -0.000000      0.000004
      2.00994      2.00994      1.91361         0.000001      0.000001     -0.000003
      6.06542      2.00994      1.91361        -0.000001      0.000001     -0.000003
      2.00994      6.06542      1.91361         0.000001     -0.000001     -0.000003
      6.06542      6.06542      1.91361        -0.000001     -0.000001     -0.000003
      4.03768      0.00000      0.00000        -0.000000     -0.000000      0.000000
      8.07536      4.03768      0.00000        -0.000000     -0.000000     -0.000000
      4.03768      4.03768      0.00000        -0.000000     -0.000000     -0.000000
      2.00632      2.00632      6.37194         0.000004      0.000004      0.000000
      6.06905      2.00632      6.37194        -0.000004      0.000004      0.000000
      2.00632      6.06905      6.37194         0.000004     -0.000004     -0.000000
      6.06905      6.06905      6.37194        -0.000004     -0.000004      0.000000
      8.07536      2.01865      9.56797        -0.000000      0.000001      0.000003
      4.03768      2.01965      9.57258        -0.000000     -0.000006      0.000005
      8.07536      6.05671      9.56797        -0.000000     -0.000001      0.000003
      4.03768      6.05571      9.57258        -0.000000      0.000006      0.000005
      2.01865      0.00000      9.56797         0.000001     -0.000000      0.000003
      6.05671      0.00000      9.56797        -0.000001     -0.000000      0.000003
      2.01965      4.03768      9.57258        -0.000006     -0.000000      0.000005
      6.05571      4.03768      9.57258         0.000006     -0.000000      0.000005
      2.01865      0.00000      3.17591         0.000001     -0.000000     -0.000003
      6.05671      0.00000      3.17591        -0.000001     -0.000000     -0.000003
      2.01965      4.03768      3.17131        -0.000006     -0.000000     -0.000005
      6.05571      4.03768      3.17131         0.000006     -0.000000     -0.000005
      8.07536      2.01865      3.17591        -0.000000      0.000001     -0.000003
      4.03768      2.01965      3.17131        -0.000000     -0.000006     -0.000005
      8.07536      6.05671      3.17591        -0.000000     -0.000001     -0.000003
      4.03768      6.05571      3.17131        -0.000000      0.000006     -0.000005
      8.07536      0.00000      0.00000        -0.000000     -0.000000     -0.000000
 -----------------------------------------------------------------------------------
    total drift:                                0.000000      0.000000     -0.000000


--------------------------------------------------------------------------------------------------------



  FREE ENERGIE OF THE ION-ELECTRON SYSTEM (eV)
  ---------------------------------------------------
  free  energy   TOTEN  =      -207.55870390 eV

  energy  without entropy=     -207.55763343  energy(sigma->0) =     -207.55816866
 
 d Force = 0.2844968E-10[ 0.162E-10, 0.407E-10]  d Energy = 0.1091394E-09-0.807E-10
 d Force =-0.1427506E-03[-0.143E-03,-0.143E-03]  d Ewald  =-0.1427500E-03-0.564E-09


--------------------------------------------------------------------------------------------------------


    POTLOK:  cpu time      0.7924: real time      0.7925


--------------------------------------------------------------------------------------------------------


 Conjugate gradient step on ions:
 trial-energy change:   -0.000000  1 .order   -0.000000   -0.000000   -0.000000
  (g-gl).g = 0.128E-09      g.g   = 0.135E-09  gl.gl    = 0.613E-09
 g(Force)  = 0.135E-09   g(Stress)= 0.000E+00 ortho     = 0.243E-10
 gamma     =   0.20930
 trial     =   0.29019
 opt step  =   0.48230  (harmonic =   0.48230) maximal distance =0.00000059
 next E    =  -207.558704   (d E  =  -0.00000)


--------------------------------------------------------------------------------------------------------


  
 reached required accuracy - stopping structural energy minimisation
     LOOP+:  cpu time    156.4485: real time    156.4897
    4ORBIT:  cpu time      0.0000: real time      0.0000

 total amount of memory used by VASP MPI-rank0    98944. kBytes
=======================================================================

   base      :      30000. kBytes
   nonl-proj :      18910. kBytes
   fftplans  :      13008. kBytes
   grid      :       8308. kBytes
   one-center:         77. kBytes
   wavefun   :      28641. kBytes
 
  
  
 General timing and accounting informations for this job:
 ========================================================
  
                  Total CPU time used (sec):     4379.034
                            User time (sec):     4353.575
                          System time (sec):       25.459
                         Elapsed time (sec):     4380.027
  
                   Maximum memory used (kb):      212232.
                   Average memory used (kb):          N/A
  
                          Minor page faults:        39403
                          Major page faults:            9
                 Voluntary context switches:          442
