<?xml version="1.0" encoding="ISO-8859-1"?>
<modeling>
 <generator>
  <i name="program" type="string">vasp </i>
  <i name="version" type="string">6.4.3  </i>
  <i name="subversion" type="string">19Mar24 (build Apr 09 2025 20:43:19) complex                          parallel </i>
  <i name="platform" type="string">LinuxIFC </i>
  <i name="date" type="string">2025 04 15 </i>
  <i name="time" type="string">13:20:45 </i>
 </generator>
 <incar>
  <i type="string" name="PREC">Accurate</i>
  <i type="int" name="IALGO">    38</i>
  <i type="logical" name="ADDGRID"> T  </i>
  <i type="int" name="NELMIN">     5</i>
  <i type="int" name="IBRION">     2</i>
  <i name="EDIFF">      0.00000001</i>
  <i name="EDIFFG">     -0.00001000</i>
  <i type="int" name="NSW">   100</i>
  <i type="int" name="ISIF">     2</i>
  <i name="ENCUT">    520.00000000</i>
  <i type="logical" name="LREAL"> F  </i>
  <i type="int" name="ISMEAR">     0</i>
  <i name="SIGMA">      0.05000000</i>
  <i type="logical" name="LWAVE"> F  </i>
  <i type="logical" name="LCHARG"> F  </i>
 </incar>
 <primitive_cell>
  <structure name="primitive_cell" >
   <crystal>
    <varray name="basis" >
     <v>       8.07536382       0.00000000       0.00000000 </v>
     <v>       0.00000000       8.07536382       0.00000000 </v>
     <v>       0.00000000       0.00000000      12.74388286 </v>
    </varray>
    <i name="volume">    831.04772771 </i>
    <varray name="rec_basis" >
     <v>       0.12383343       0.00000000       0.00000000 </v>
     <v>       0.00000000       0.12383343       0.00000000 </v>
     <v>       0.00000000       0.00000000       0.07846902 </v>
    </varray>
   </crystal>
   <varray name="positions" >
    <v>       0.24889765       0.24889765       0.84984082 </v>
    <v>       0.75110235       0.24889765       0.84984082 </v>
    <v>       0.24889765       0.75110235       0.84984082 </v>
    <v>       0.75110235       0.75110235       0.84984082 </v>
    <v>       0.00000000       0.00000000       0.65063101 </v>
    <v>       0.50000000       0.00000000       0.65206419 </v>
    <v>       0.00000000       0.50000000       0.65206419 </v>
    <v>       0.50000000       0.50000000       0.65357213 </v>
    <v>       0.00000000       0.00000000       0.34936899 </v>
    <v>       0.50000000       0.00000000       0.34793581 </v>
    <v>       0.00000000       0.50000000       0.34793581 </v>
    <v>       0.50000000       0.50000000       0.34642787 </v>
    <v>       0.24889765       0.24889765       0.15015918 </v>
    <v>       0.75110235       0.24889765       0.15015918 </v>
    <v>       0.24889765       0.75110235       0.15015918 </v>
    <v>       0.75110235       0.75110235       0.15015918 </v>
    <v>       0.50000000       0.00000000       0.00000000 </v>
    <v>       0.00000000       0.50000000       0.00000000 </v>
    <v>       0.50000000       0.50000000       0.00000000 </v>
    <v>       0.24844656       0.24844656       0.50000000 </v>
    <v>       0.75155344       0.24844656       0.50000000 </v>
    <v>       0.24844656       0.75155344       0.50000000 </v>
    <v>       0.75155344       0.75155344       0.50000000 </v>
    <v>       0.00000000       0.24997744       0.75078933 </v>
    <v>       0.50000000       0.25010073       0.75115017 </v>
    <v>       0.00000000       0.75002256       0.75078933 </v>
    <v>       0.50000000       0.74989927       0.75115017 </v>
    <v>       0.24997744       0.00000000       0.75078933 </v>
    <v>       0.75002256       0.00000000       0.75078933 </v>
    <v>       0.25010073       0.50000000       0.75115017 </v>
    <v>       0.74989927       0.50000000       0.75115017 </v>
    <v>       0.24997744       0.00000000       0.24921067 </v>
    <v>       0.75002256       0.00000000       0.24921067 </v>
    <v>       0.25010073       0.50000000       0.24884983 </v>
    <v>       0.74989927       0.50000000       0.24884983 </v>
    <v>       0.00000000       0.24997744       0.24921067 </v>
    <v>       0.50000000       0.25010073       0.24884983 </v>
    <v>       0.00000000       0.75002256       0.24921067 </v>
    <v>       0.50000000       0.74989927       0.24884983 </v>
    <v>       0.00000000       0.00000000       0.00000000 </v>
   </varray>
  </structure>
  <varray name="primitive_index" >
   <v type="int" >        1 </v>
   <v type="int" >        2 </v>
   <v type="int" >        3 </v>
   <v type="int" >        4 </v>
   <v type="int" >        5 </v>
   <v type="int" >        6 </v>
   <v type="int" >        7 </v>
   <v type="int" >        8 </v>
   <v type="int" >        9 </v>
   <v type="int" >       10 </v>
   <v type="int" >       11 </v>
   <v type="int" >       12 </v>
   <v type="int" >       13 </v>
   <v type="int" >       14 </v>
   <v type="int" >       15 </v>
   <v type="int" >       16 </v>
   <v type="int" >       17 </v>
   <v type="int" >       18 </v>
   <v type="int" >       19 </v>
   <v type="int" >       20 </v>
   <v type="int" >       21 </v>
   <v type="int" >       22 </v>
   <v type="int" >       23 </v>
   <v type="int" >       24 </v>
   <v type="int" >       25 </v>
   <v type="int" >       26 </v>
   <v type="int" >       27 </v>
   <v type="int" >       28 </v>
   <v type="int" >       29 </v>
   <v type="int" >       30 </v>
   <v type="int" >       31 </v>
   <v type="int" >       32 </v>
   <v type="int" >       33 </v>
   <v type="int" >       34 </v>
   <v type="int" >       35 </v>
   <v type="int" >       36 </v>
   <v type="int" >       37 </v>
   <v type="int" >       38 </v>
   <v type="int" >       39 </v>
   <v type="int" >       40 </v>
  </varray>
 </primitive_cell>
 <kpoints>
  <generation param="Gamma">
   <v type="int" name="divisions">       4        4        3 </v>
   <v name="usershift">      0.00000000       0.00000000       0.00000000 </v>
   <v name="genvec1">      0.25000000       0.00000000       0.00000000 </v>
   <v name="genvec2">      0.00000000       0.25000000       0.00000000 </v>
   <v name="genvec3">      0.00000000       0.00000000       0.33333333 </v>
   <v name="shift">      0.00000000       0.00000000       0.00000000 </v>
  </generation>
  <varray name="kpointlist" >
   <v>       0.00000000       0.00000000       0.00000000 </v>
   <v>       0.25000000       0.00000000       0.00000000 </v>
   <v>       0.50000000       0.00000000       0.00000000 </v>
   <v>       0.25000000       0.25000000       0.00000000 </v>
   <v>       0.50000000       0.25000000       0.00000000 </v>
   <v>       0.50000000       0.50000000       0.00000000 </v>
   <v>       0.00000000       0.00000000       0.33333333 </v>
   <v>       0.25000000       0.00000000       0.33333333 </v>
   <v>       0.50000000       0.00000000       0.33333333 </v>
   <v>       0.25000000       0.25000000       0.33333333 </v>
   <v>       0.50000000       0.25000000       0.33333333 </v>
   <v>       0.50000000       0.50000000       0.33333333 </v>
  </varray>
  <varray name="weights" >
   <v>       0.02083333 </v>
   <v>       0.08333333 </v>
   <v>       0.04166667 </v>
   <v>       0.08333333 </v>
   <v>       0.08333333 </v>
   <v>       0.02083333 </v>
   <v>       0.04166667 </v>
   <v>       0.16666667 </v>
   <v>       0.08333333 </v>
   <v>       0.16666667 </v>
   <v>       0.16666667 </v>
   <v>       0.04166667 </v>
  </varray>
 </kpoints>
 <parameters>
  <separator name="general" >
   <i type="string" name="SYSTEM">unknown system</i>
   <i type="logical" name="LCOMPAT"> F  </i>
  </separator>
  <separator name="electronic" >
   <i type="string" name="PREC">accura</i>
   <i name="ENMAX">    520.00000000</i>
   <i name="ENAUG">    605.39200000</i>
   <i name="EDIFF">      0.00000001</i>
   <i type="int" name="IALGO">    38</i>
   <i type="int" name="IWAVPR">    11</i>
   <i type="int" name="NBANDS">   232</i>
   <i type="int" name="NBANDSLOW">    -1</i>
   <i type="int" name="NBANDSHIGH">    -1</i>
   <i name="NELECT">    384.00000000</i>
   <i type="int" name="TURBO">     0</i>
   <i type="int" name="IRESTART">     0</i>
   <i type="int" name="NREBOOT">     0</i>
   <i type="int" name="NMIN">     0</i>
   <i name="EREF">      0.00000000</i>
   <separator name="electronic smearing" >
    <i type="int" name="ISMEAR">     0</i>
    <i name="SIGMA">      0.05000000</i>
    <i name="KSPACING">      0.50000000</i>
    <i type="logical" name="KGAMMA"> T  </i>
    <i type="logical" name="KBLOWUP"> T  </i>
   </separator>
   <separator name="electronic projectors" >
    <i type="logical" name="LREAL"> F  </i>
    <v name="ROPT">      0.00000000      0.00000000      0.00000000      0.00000000</v>
    <i type="int" name="LMAXPAW">  -100</i>
    <i type="int" name="LMAXMIX">     2</i>
    <i type="logical" name="NLSPLINE"> F  </i>
   </separator>
   <separator name="electronic startup" >
    <i type="int" name="ISTART">     0</i>
    <i type="int" name="ICHARG">     2</i>
    <i type="int" name="INIWAV">     1</i>
   </separator>
   <separator name="electronic spin" >
    <i type="int" name="ISPIN">     1</i>
    <i type="logical" name="LNONCOLLINEAR"> F  </i>
    <v name="MAGMOM">      1.00000000      1.00000000      1.00000000      1.00000000      1.00000000      1.00000000      1.00000000      1.00000000      1.00000000      1.00000000      1.00000000      1.00000000      1.00000000      1.00000000      1.00000000      1.00000000      1.00000000      1.00000000      1.00000000      1.00000000
      1.00000000      1.00000000      1.00000000      1.00000000      1.00000000      1.00000000      1.00000000      1.00000000      1.00000000      1.00000000      1.00000000      1.00000000      1.00000000      1.00000000      1.00000000      1.00000000      1.00000000      1.00000000      1.00000000      1.00000000
</v>
    <i name="NUPDOWN">     -1.00000000</i>
    <i type="logical" name="LSORBIT"> F  </i>
    <v name="SAXIS">      0.00000000      0.00000000      1.00000000</v>
    <i type="logical" name="LSPIRAL"> F  </i>
    <v name="QSPIRAL">      0.00000000      0.00000000      0.00000000</v>
    <i type="logical" name="LZEROZ"> F  </i>
   </separator>
   <separator name="electronic exchange-correlation" >
    <i type="logical" name="LASPH"> F  </i>
   </separator>
   <separator name="electronic convergence" >
    <i type="int" name="NELM">    60</i>
    <i type="int" name="NELMDL">    -5</i>
    <i type="int" name="NELMIN">     5</i>
    <i name="ENINI">    520.00000000</i>
    <separator name="electronic convergence detail" >
     <i type="logical" name="LDIAG"> T  </i>
     <i type="logical" name="LSUBROT"> F  </i>
     <i name="WEIMIN">      0.00100000</i>
     <i name="EBREAK">      0.00000000</i>
     <i name="DEPER">      0.30000000</i>
     <i type="int" name="NRMM">     4</i>
     <i name="TIME">      0.40000000</i>
    </separator>
   </separator>
   <separator name="electronic mixer" >
    <i name="AMIX">      0.40000000</i>
    <i name="BMIX">      1.00000000</i>
    <i name="AMIN">      0.10000000</i>
    <i name="AMIX_MAG">      1.60000000</i>
    <i name="BMIX_MAG">      1.00000000</i>
    <separator name="electronic mixer details" >
     <i type="int" name="IMIX">     4</i>
     <i type="logical" name="MIXFIRST"> F  </i>
     <i type="int" name="MAXMIX">   -45</i>
     <i name="WC">    100.00000000</i>
     <i type="int" name="INIMIX">     1</i>
     <i type="int" name="MIXPRE">     1</i>
     <i type="int" name="MREMOVE">     5</i>
    </separator>
   </separator>
   <separator name="electronic dipolcorrection" >
    <i type="logical" name="LDIPOL"> F  </i>
    <i type="logical" name="LMONO"> F  </i>
    <i type="int" name="IDIPOL">     0</i>
    <i name="EPSILON">      1.00000000</i>
    <v name="DIPOL">   -100.00000000   -100.00000000   -100.00000000</v>
    <i name="EFIELD">      0.00000000</i>
    <i type="logical" name="LVACPOTAV"> F  </i>
   </separator>
  </separator>
  <separator name="grids" >
   <i type="int" name="NGX">    60</i>
   <i type="int" name="NGY">    60</i>
   <i type="int" name="NGZ">    96</i>
   <i type="int" name="NGXF">   120</i>
   <i type="int" name="NGYF">   120</i>
   <i type="int" name="NGZF">   192</i>
   <i type="logical" name="ADDGRID"> T  </i>
  </separator>
  <separator name="ionic" >
   <i type="int" name="NSW">   100</i>
   <i type="int" name="IBRION">     2</i>
   <i type="int" name="MDALGO">     0</i>
   <i type="int" name="ISIF">     2</i>
   <i name="PSTRESS">      0.00000000</i>
   <i name="EDIFFG">     -0.00001000</i>
   <i type="int" name="NFREE">     1</i>
   <i name="POTIM">      0.50000000</i>
   <i name="SMASS">     -3.00000000</i>
   <i name="SCALEE">      1.00000000</i>
  </separator>
  <separator name="ionic md" >
   <i name="TEBEG">      0.00010000</i>
   <i name="TEEND">      0.00010000</i>
   <i type="int" name="NBLOCK">     1</i>
   <i type="int" name="KBLOCK">   100</i>
   <i type="int" name="NPACO">   256</i>
   <i name="APACO">     10.00000000</i>
  </separator>
  <separator name="symmetry" >
   <i type="int" name="ISYM">     2</i>
   <i name="SYMPREC">      0.00001000</i>
  </separator>
  <separator name="dos" >
   <i type="int" name="LORBIT">     0</i>
   <v name="RWIGS">     -1.00000000     -1.00000000     -1.00000000     -1.00000000</v>
   <i type="int" name="NEDOS">   301</i>
   <i name="EMIN">     10.00000000</i>
   <i name="EMAX">    -10.00000000</i>
   <i name="EFERMI">      0.00000000</i>
  </separator>
  <separator name="writing" >
   <i type="int" name="NWRITE">     2</i>
   <i type="logical" name="LWAVE"> F  </i>
   <i type="logical" name="LDOWNSAMPLE"> F  </i>
   <i type="logical" name="LCHARG"> F  </i>
   <i type="logical" name="LPARD"> F  </i>
   <i type="logical" name="LVTOT"> F  </i>
   <i type="logical" name="LVHAR"> F  </i>
   <i type="logical" name="LELF"> F  </i>
   <i type="logical" name="LOPTICS"> F  </i>
   <v name="STM">      0.00000000      0.00000000      0.00000000      0.00000000      0.00000000      0.00000000      0.00000000</v>
  </separator>
  <separator name="performance" >
   <i type="int" name="NPAR">     4</i>
   <i type="int" name="NSIM">     4</i>
   <i type="int" name="NBLK">    -1</i>
   <i type="logical" name="LPLANE"> T  </i>
   <i type="logical" name="LSCALAPACK"> T  </i>
   <i type="logical" name="LSCAAWARE"> F  </i>
   <i type="logical" name="LSCALU"> F  </i>
   <i type="logical" name="LASYNC"> F  </i>
   <i type="logical" name="LORBITALREAL"> F  </i>
  </separator>
  <separator name="miscellaneous" >
   <i type="int" name="IDIOT">     3</i>
   <i type="int" name="PHON_NSTRUCT">    -1</i>
   <i type="logical" name="LMUSIC"> F  </i>
   <v name="POMASS">    208.98000000     78.96000000     16.00000000     32.06600000</v>
   <v name="DARWINR">      0.00000000      0.00000000      0.00000000      0.00000000</v>
   <v name="DARWINV">      1.00000000      1.00000000      1.00000000      1.00000000</v>
   <i type="logical" name="LCORR"> T  </i>
  </separator>
  <i type="logical" name="GGA_COMPAT"> T  </i>
  <i type="logical" name="LBERRY"> F  </i>
  <i type="int" name="ICORELEVEL">     0</i>
  <i type="logical" name="LDAU"> F  </i>
  <i type="int" name="I_CONSTRAINED_M">     0</i>
  <separator name="electronic exchange-correlation" >
   <i type="string" name="GGA    ">PE</i>
   <i type="string" name="XC_C">1</i>
   <i type="int" name="VOSKOWN">     0</i>
   <i type="logical" name="LHFCALC"> F  </i>
   <i type="string" name="PRECFOCK"></i>
   <i type="logical" name="LSYMGRAD"> F  </i>
   <i type="logical" name="LHFONE"> F  </i>
   <i type="logical" name="LRHFCALC"> F  </i>
   <i type="logical" name="LTHOMAS"> F  </i>
   <i type="logical" name="LMODELHF"> F  </i>
   <i type="logical" name="LFOCKACE"> F  </i>
   <i name="ENCUT4O">     -1.00000000</i>
   <i type="int" name="EXXOEP">     0</i>
   <i type="int" name="FOURORBIT">     0</i>
   <i name="AEXX">      0.00000000</i>
   <i name="HFALPHA">      0.00000000</i>
   <i name="MCALPHA">      0.00000000</i>
   <i name="ALDAX">      1.00000000</i>
   <i name="AGGAX">      1.00000000</i>
   <i name="AMGGAX">      1.00000000</i>
   <i name="ALDAC">      1.00000000</i>
   <i name="AGGAC">      1.00000000</i>
   <i name="AMGGAC">      1.00000000</i>
   <i type="int" name="NKREDX">     1</i>
   <i type="int" name="NKREDY">     1</i>
   <i type="int" name="NKREDZ">     1</i>
   <i type="logical" name="SHIFTRED"> F  </i>
   <i type="logical" name="ODDONLY"> F  </i>
   <i type="logical" name="EVENONLY"> F  </i>
   <i type="int" name="LMAXFOCK">     0</i>
   <i type="int" name="NMAXFOCKAE">     0</i>
   <i type="logical" name="LFOCKAEDFT"> F  </i>
   <i name="HFSCREEN">      0.00000000</i>
   <i name="HFSCREENC">      0.00000000</i>
   <i type="int" name="NBANDSGWLOW">     0</i>
  </separator>
  <separator name="vdW DFT" >
   <i type="logical" name="LUSE_VDW"> F  </i>
   <i type="int" name="IVDW_NL">    -1</i>
   <i type="logical" name="LSPIN_VDW"> F  </i>
   <i name="ZAB_VDW">     -0.84910000</i>
   <i name="GAMMA_VDW">      1.39626340</i>
   <i name="ALPHA_VDW">      0.00000000</i>
   <i name="PARAM1">      0.12340000</i>
   <i name="PARAM2">      1.00000000</i>
   <i name="BPARAM">      6.30000000</i>
   <i name="CPARAM">      0.00930000</i>
  </separator>
  <separator name="model GW" >
   <i type="int" name="MODEL_GW">     0</i>
   <i name="MODEL_EPS0">     12.46571592</i>
   <i name="MODEL_ALPHA">      1.00000000</i>
  </separator>
  <separator name="linear response parameters" >
   <i type="logical" name="LEPSILON"> F  </i>
   <i type="logical" name="LRPA"> F  </i>
   <i type="logical" name="LNABLA"> F  </i>
   <i type="logical" name="LVEL"> F  </i>
   <i name="CSHIFT">      0.10000000</i>
   <i name="OMEGAMAX">     -1.00000000</i>
   <i name="DEG_THRESHOLD">      0.00200000</i>
   <i name="RTIME">     -0.10000000</i>
   <i name="WPLASMAI">      0.00000000</i>
   <v name="DFIELD">      0.00000000      0.00000000      0.00000000</v>
   <v name="WPLASMA">      0.00000000      0.00000000      0.00000000      0.00000000      0.00000000      0.00000000      0.00000000      0.00000000      0.00000000</v>
  </separator>
  <separator name="orbital magnetization" >
   <i type="logical" name="NUCIND"> F  </i>
   <v name="MAGPOS">      0.00000000      0.00000000      0.00000000</v>
   <i type="logical" name="LNICSALL"> T  </i>
   <i type="logical" name="ORBITALMAG"> F  </i>
   <i type="logical" name="LMAGBLOCH"> F  </i>
   <i type="logical" name="LCHIMAG"> F  </i>
   <i type="logical" name="LGAUGE"> T  </i>
   <i type="int" name="MAGATOM">     0</i>
   <v name="MAGDIPOL">      0.00000000      0.00000000      0.00000000</v>
   <v name="AVECCONST">      0.00000000      0.00000000      0.00000000</v>
  </separator>
  <separator name="response functions" >
   <i type="logical" name="LALL_IN_ONE"> F  </i>
   <i type="int" name="IALL_IN_ONE">    -1</i>
   <i type="int" name="NBANDS_WAVE">    -1</i>
   <i type="logical" name="LFINITE_TEMPERATURE"> F  </i>
   <i type="logical" name="LADDER"> F  </i>
   <i type="logical" name="LRPAFORCE"> F  </i>
   <i type="logical" name="LFXC"> F  </i>
   <i type="logical" name="LHARTREE"> T  </i>
   <i type="int" name="IBSE">     0</i>
   <v type="int" name="KPOINT">    -1     0     0     0</v>
   <i type="logical" name="LTCTC"> F  </i>
   <i type="logical" name="LTCTE"> F  </i>
   <i type="logical" name="LTETE"> F  </i>
   <i type="logical" name="LTRIPLET"> F  </i>
   <i type="logical" name="LFXCEPS"> F  </i>
   <i type="logical" name="LFXHEG"> F  </i>
   <i type="int" name="NATURALO">     2</i>
   <i type="logical" name="LHOLEGF"> F  </i>
   <i type="logical" name="L2ORDER"> F  </i>
   <i type="logical" name="LDMP1"> F  </i>
   <i type="logical" name="LMP2LT"> F  </i>
   <i type="logical" name="LSMP2LT"> F  </i>
   <i type="logical" name="LGWLF"> F  </i>
   <i name="ENCUTGW">     -1.60000002</i>
   <i name="ENCUTGWSOFT">     -1.60000002</i>
   <i name="ENCUTLF">     -1.00000000</i>
   <i type="logical" name="ESF_SPLINES"> F  </i>
   <i name="ESF_CONV">      0.01000000</i>
   <i type="int" name="ESF_NINTER">    15</i>
   <i type="int" name="LMAXMP2">    -1</i>
   <i name="SCISSOR">      0.00000000</i>
   <i type="int" name="NOMEGA">     0</i>
   <i type="int" name="NOMEGAR">     0</i>
   <i type="int" name="NBANDSGW">    -1</i>
   <i type="int" name="NBANDSO">    -1</i>
   <i type="int" name="NBANDSV">    -1</i>
   <i type="int" name="NELMGW">     1</i>
   <i type="int" name="NELMHF">     1</i>
   <i type="int" name="DIM">     3</i>
   <i type="int" name="IESPILON">     4</i>
   <i type="int" name="ANTIRES">     0</i>
   <i name="OMEGAMAX">    -30.00000000</i>
   <i name="OMEGAMIN">    -30.00000000</i>
   <i name="OMEGATL">   -200.00000000</i>
   <i type="int" name="OMEGAGRID">     0</i>
   <i name="CSHIFT">     -0.10000000</i>
   <i type="logical" name="LSELFENERGY"> F  </i>
   <i type="logical" name="LSPECTRAL"> F  </i>
   <i type="logical" name="LSPECTRALGW"> F  </i>
   <i type="logical" name="LSINGLES"> F  </i>
   <i type="logical" name="LFERMIGW"> F  </i>
   <i type="logical" name="ODDONLYGW"> F  </i>
   <i type="logical" name="EVENONLYGW"> F  </i>
   <i type="int" name="NKREDLFX">     1</i>
   <i type="int" name="NKREDLFY">     1</i>
   <i type="int" name="NKREDLFZ">     1</i>
   <i type="int" name="MAXMEM">  2800</i>
   <i type="int" name="TELESCOPE">     0</i>
   <i type="int" name="NTAUPAR">    -1</i>
   <i type="int" name="NOMEGAPAR">    -1</i>
   <i name="DAMP_NEWTON">      0.80000001</i>
   <i name="LAMBDA">      1.00000000</i>
  </separator>
  <separator name="External order field" >
   <i name="OFIELD_KAPPA">      0.00000000</i>
   <v name="OFIELD_K">      0.00000000      0.00000000      0.00000000</v>
   <i name="OFIELD_Q6_NEAR">      0.00000000</i>
   <i name="OFIELD_Q6_FAR">      0.00000000</i>
   <i name="OFIELD_A">      0.00000000</i>
  </separator>
  <separator name="optional k-points parameters" >
   <i type="int" name="KPOINTS_OPT_MODE">     1</i>
   <i type="logical" name="LKPOINTS_OPT"> F  </i>
  </separator>
 </parameters>
 <atominfo>
  <atoms>      40 </atoms>
  <types>       4 </types>
  <array name="atoms" >
   <dimension dim="1">ion</dimension>
   <field type="string">element</field>
   <field type="int">atomtype</field>
   <set>
    <rc><c>Bi</c><c>   1</c></rc>
    <rc><c>Bi</c><c>   1</c></rc>
    <rc><c>Bi</c><c>   1</c></rc>
    <rc><c>Bi</c><c>   1</c></rc>
    <rc><c>Bi</c><c>   1</c></rc>
    <rc><c>Bi</c><c>   1</c></rc>
    <rc><c>Bi</c><c>   1</c></rc>
    <rc><c>Bi</c><c>   1</c></rc>
    <rc><c>Bi</c><c>   1</c></rc>
    <rc><c>Bi</c><c>   1</c></rc>
    <rc><c>Bi</c><c>   1</c></rc>
    <rc><c>Bi</c><c>   1</c></rc>
    <rc><c>Bi</c><c>   1</c></rc>
    <rc><c>Bi</c><c>   1</c></rc>
    <rc><c>Bi</c><c>   1</c></rc>
    <rc><c>Bi</c><c>   1</c></rc>
    <rc><c>Se</c><c>   2</c></rc>
    <rc><c>Se</c><c>   2</c></rc>
    <rc><c>Se</c><c>   2</c></rc>
    <rc><c>Se</c><c>   2</c></rc>
    <rc><c>Se</c><c>   2</c></rc>
    <rc><c>Se</c><c>   2</c></rc>
    <rc><c>Se</c><c>   2</c></rc>
    <rc><c>O </c><c>   3</c></rc>
    <rc><c>O </c><c>   3</c></rc>
    <rc><c>O </c><c>   3</c></rc>
    <rc><c>O </c><c>   3</c></rc>
    <rc><c>O </c><c>   3</c></rc>
    <rc><c>O </c><c>   3</c></rc>
    <rc><c>O </c><c>   3</c></rc>
    <rc><c>O </c><c>   3</c></rc>
    <rc><c>O </c><c>   3</c></rc>
    <rc><c>O </c><c>   3</c></rc>
    <rc><c>O </c><c>   3</c></rc>
    <rc><c>O </c><c>   3</c></rc>
    <rc><c>O </c><c>   3</c></rc>
    <rc><c>O </c><c>   3</c></rc>
    <rc><c>O </c><c>   3</c></rc>
    <rc><c>O </c><c>   3</c></rc>
    <rc><c>S </c><c>   4</c></rc>
   </set>
  </array>
  <array name="atomtypes" >
   <dimension dim="1">type</dimension>
   <field type="int">atomspertype</field>
   <field type="string">element</field>
   <field>mass</field>
   <field>valence</field>
   <field type="string">pseudopotential</field>
   <set>
    <rc><c>  16</c><c>Bi</c><c>    208.98000000</c><c>     15.00000000</c><c>  PAW_PBE Bi_d 06Sep2000                </c></rc>
    <rc><c>   7</c><c>Se</c><c>     78.96000000</c><c>      6.00000000</c><c>  PAW_PBE Se 06Sep2000                  </c></rc>
    <rc><c>  16</c><c>O </c><c>     16.00000000</c><c>      6.00000000</c><c>  PAW_PBE O 08Apr2002                   </c></rc>
    <rc><c>   1</c><c>S </c><c>     32.06600000</c><c>      6.00000000</c><c>  PAW_PBE S 06Sep2000                   </c></rc>
   </set>
  </array>
 </atominfo>
 <structure name="initialpos" >
  <crystal>
   <varray name="basis" >
    <v>       8.07536382       0.00000000       0.00000000 </v>
    <v>       0.00000000       8.07536382       0.00000000 </v>
    <v>       0.00000000       0.00000000      12.74388286 </v>
   </varray>
   <i name="volume">    831.04772771 </i>
   <varray name="rec_basis" >
    <v>       0.12383343       0.00000000       0.00000000 </v>
    <v>       0.00000000       0.12383343       0.00000000 </v>
    <v>       0.00000000       0.00000000       0.07846902 </v>
   </varray>
  </crystal>
  <varray name="positions" >
   <v>       0.24889765       0.24889765       0.84984082 </v>
   <v>       0.75110235       0.24889765       0.84984082 </v>
   <v>       0.24889765       0.75110235       0.84984082 </v>
   <v>       0.75110235       0.75110235       0.84984082 </v>
   <v>       0.00000000       0.00000000       0.65063101 </v>
   <v>       0.50000000       0.00000000       0.65206419 </v>
   <v>       0.00000000       0.50000000       0.65206419 </v>
   <v>       0.50000000       0.50000000       0.65357213 </v>
   <v>       0.00000000       0.00000000       0.34936899 </v>
   <v>       0.50000000       0.00000000       0.34793581 </v>
   <v>       0.00000000       0.50000000       0.34793581 </v>
   <v>       0.50000000       0.50000000       0.34642787 </v>
   <v>       0.24889765       0.24889765       0.15015918 </v>
   <v>       0.75110235       0.24889765       0.15015918 </v>
   <v>       0.24889765       0.75110235       0.15015918 </v>
   <v>       0.75110235       0.75110235       0.15015918 </v>
   <v>       0.50000000       0.00000000       0.00000000 </v>
   <v>       0.00000000       0.50000000       0.00000000 </v>
   <v>       0.50000000       0.50000000       0.00000000 </v>
   <v>       0.24844656       0.24844656       0.50000000 </v>
   <v>       0.75155344       0.24844656       0.50000000 </v>
   <v>       0.24844656       0.75155344       0.50000000 </v>
   <v>       0.75155344       0.75155344       0.50000000 </v>
   <v>       0.00000000       0.24997744       0.75078933 </v>
   <v>       0.50000000       0.25010073       0.75115017 </v>
   <v>       0.00000000       0.75002256       0.75078933 </v>
   <v>       0.50000000       0.74989927       0.75115017 </v>
   <v>       0.24997744       0.00000000       0.75078933 </v>
   <v>       0.75002256       0.00000000       0.75078933 </v>
   <v>       0.25010073       0.50000000       0.75115017 </v>
   <v>       0.74989927       0.50000000       0.75115017 </v>
   <v>       0.24997744       0.00000000       0.24921067 </v>
   <v>       0.75002256       0.00000000       0.24921067 </v>
   <v>       0.25010073       0.50000000       0.24884983 </v>
   <v>       0.74989927       0.50000000       0.24884983 </v>
   <v>       0.00000000       0.24997744       0.24921067 </v>
   <v>       0.50000000       0.25010073       0.24884983 </v>
   <v>       0.00000000       0.75002256       0.24921067 </v>
   <v>       0.50000000       0.74989927       0.24884983 </v>
   <v>       0.00000000       0.00000000       0.00000000 </v>
  </varray>
 </structure>
 <calculation>
  <scstep>
   <time name="dav">   34.48   34.49</time>
   <time name="total">   35.25   35.26</time>
   <energy>
    <i name="alphaZ">   1215.52124893 </i>
    <i name="ewald"> -28165.03218249 </i>
    <i name="hartreedc"> -12219.15397458 </i>
    <i name="XCdc">   1227.12024953 </i>
    <i name="pawpsdc">  34040.00696010 </i>
    <i name="pawaedc"> -33495.80632930 </i>
    <i name="eentropy">     -0.00460044 </i>
    <i name="bandstr">   2443.74911900 </i>
    <i name="atom">  40341.65184589 </i>
    <i name="e_fr_energy">   5388.05233664 </i>
    <i name="e_wo_entrp">   5388.05693709 </i>
    <i name="e_0_energy">   5388.05463687 </i>
   </energy>
  </scstep>
  <scstep>
   <time name="dav">   34.79   34.80</time>
   <time name="total">   34.79   34.80</time>
   <energy>
    <i name="e_fr_energy">    873.91946684 </i>
    <i name="e_wo_entrp">    873.93560239 </i>
    <i name="e_0_energy">    873.92753461 </i>
   </energy>
  </scstep>
  <scstep>
   <time name="dav">   37.39   37.41</time>
   <time name="total">   37.39   37.41</time>
   <energy>
    <i name="e_fr_energy">   -124.32671035 </i>
    <i name="e_wo_entrp">   -124.32671035 </i>
    <i name="e_0_energy">   -124.32671035 </i>
   </energy>
  </scstep>
  <scstep>
   <time name="dav">   38.85   38.86</time>
   <time name="total">   38.85   38.86</time>
   <energy>
    <i name="e_fr_energy">   -237.99763785 </i>
    <i name="e_wo_entrp">   -237.99763785 </i>
    <i name="e_0_energy">   -237.99763785 </i>
   </energy>
  </scstep>
  <scstep>
   <time name="dav">   39.86   39.87</time>
   <time name="total">   41.06   41.07</time>
   <energy>
    <i name="e_fr_energy">   -243.55062009 </i>
    <i name="e_wo_entrp">   -243.55062009 </i>
    <i name="e_0_energy">   -243.55062009 </i>
   </energy>
  </scstep>
  <scstep>
   <time name="dav">   43.55   43.56</time>
   <time name="total">   45.56   45.58</time>
   <energy>
    <i name="e_fr_energy">   -208.36823436 </i>
    <i name="e_wo_entrp">   -208.36823436 </i>
    <i name="e_0_energy">   -208.36823436 </i>
   </energy>
  </scstep>
  <scstep>
   <time name="dav">   37.25   37.26</time>
   <time name="total">   39.27   39.28</time>
   <energy>
    <i name="e_fr_energy">   -207.46582770 </i>
    <i name="e_wo_entrp">   -207.46526094 </i>
    <i name="e_0_energy">   -207.46554432 </i>
   </energy>
  </scstep>
  <scstep>
   <time name="dav">   43.09   43.09</time>
   <time name="total">   45.11   45.11</time>
   <energy>
    <i name="e_fr_energy">   -207.62275323 </i>
    <i name="e_wo_entrp">   -207.62100255 </i>
    <i name="e_0_energy">   -207.62187789 </i>
   </energy>
  </scstep>
  <scstep>
   <time name="dav">   41.80   41.81</time>
   <time name="total">   43.82   43.82</time>
   <energy>
    <i name="e_fr_energy">   -207.57186049 </i>
    <i name="e_wo_entrp">   -207.57141158 </i>
    <i name="e_0_energy">   -207.57163603 </i>
   </energy>
  </scstep>
  <scstep>
   <time name="dav">   41.02   41.02</time>
   <time name="total">   43.03   43.03</time>
   <energy>
    <i name="e_fr_energy">   -207.55462640 </i>
    <i name="e_wo_entrp">   -207.55350168 </i>
    <i name="e_0_energy">   -207.55406404 </i>
   </energy>
  </scstep>
  <scstep>
   <time name="dav">   43.37   43.38</time>
   <time name="total">   45.39   45.39</time>
   <energy>
    <i name="e_fr_energy">   -207.55729452 </i>
    <i name="e_wo_entrp">   -207.55619068 </i>
    <i name="e_0_energy">   -207.55674260 </i>
   </energy>
  </scstep>
  <scstep>
   <time name="dav">   41.29   41.30</time>
   <time name="total">   43.31   43.32</time>
   <energy>
    <i name="e_fr_energy">   -207.55884039 </i>
    <i name="e_wo_entrp">   -207.55780177 </i>
    <i name="e_0_energy">   -207.55832108 </i>
   </energy>
  </scstep>
  <scstep>
   <time name="dav">   38.98   38.99</time>
   <time name="total">   41.00   41.01</time>
   <energy>
    <i name="e_fr_energy">   -207.55877569 </i>
    <i name="e_wo_entrp">   -207.55772886 </i>
    <i name="e_0_energy">   -207.55825228 </i>
   </energy>
  </scstep>
  <scstep>
   <time name="dav">   39.19   39.20</time>
   <time name="total">   41.21   41.22</time>
   <energy>
    <i name="e_fr_energy">   -207.55871871 </i>
    <i name="e_wo_entrp">   -207.55766125 </i>
    <i name="e_0_energy">   -207.55818998 </i>
   </energy>
  </scstep>
  <scstep>
   <time name="dav">   46.43   46.43</time>
   <time name="total">   48.44   48.44</time>
   <energy>
    <i name="e_fr_energy">   -207.55870766 </i>
    <i name="e_wo_entrp">   -207.55764282 </i>
    <i name="e_0_energy">   -207.55817524 </i>
   </energy>
  </scstep>
  <scstep>
   <time name="dav">   39.15   39.15</time>
   <time name="total">   41.16   41.17</time>
   <energy>
    <i name="e_fr_energy">   -207.55870446 </i>
    <i name="e_wo_entrp">   -207.55763587 </i>
    <i name="e_0_energy">   -207.55817017 </i>
   </energy>
  </scstep>
  <scstep>
   <time name="dav">   42.75   42.75</time>
   <time name="total">   44.77   44.77</time>
   <energy>
    <i name="e_fr_energy">   -207.55870354 </i>
    <i name="e_wo_entrp">   -207.55763255 </i>
    <i name="e_0_energy">   -207.55816804 </i>
   </energy>
  </scstep>
  <scstep>
   <time name="dav">   37.48   37.49</time>
   <time name="total">   39.50   39.51</time>
   <energy>
    <i name="e_fr_energy">   -207.55870376 </i>
    <i name="e_wo_entrp">   -207.55763344 </i>
    <i name="e_0_energy">   -207.55816860 </i>
   </energy>
  </scstep>
  <scstep>
   <time name="dav">   35.11   35.11</time>
   <time name="total">   37.12   37.12</time>
   <energy>
    <i name="e_fr_energy">   -207.55870391 </i>
    <i name="e_wo_entrp">   -207.55763358 </i>
    <i name="e_0_energy">   -207.55816874 </i>
   </energy>
  </scstep>
  <scstep>
   <time name="dav">   28.86   28.86</time>
   <time name="total">   30.88   30.88</time>
   <energy>
    <i name="e_fr_energy">   -207.55870392 </i>
    <i name="e_wo_entrp">   -207.55763350 </i>
    <i name="e_0_energy">   -207.55816871 </i>
   </energy>
  </scstep>
  <scstep>
   <time name="dav">   25.32   25.33</time>
   <time name="total">   27.34   27.35</time>
   <energy>
    <i name="e_fr_energy">   -207.55870390 </i>
    <i name="e_wo_entrp">   -207.55763359 </i>
    <i name="e_0_energy">   -207.55816874 </i>
   </energy>
  </scstep>
  <scstep>
   <time name="dav">   25.14   25.15</time>
   <time name="total">   25.94   25.95</time>
   <energy>
    <i name="alphaZ">   1215.52124893 </i>
    <i name="ewald"> -28165.03218249 </i>
    <i name="hartreedc"> -12358.40678473 </i>
    <i name="XCdc">   1243.47482784 </i>
    <i name="pawpsdc">  35646.82898253 </i>
    <i name="pawaedc"> -35036.84180161 </i>
    <i name="eentropy">     -0.00107025 </i>
    <i name="bandstr">  -3094.75377001 </i>
    <i name="atom">  40341.65184589 </i>
    <i name="e_fr_energy">   -207.55870390 </i>
    <i name="e_wo_entrp">   -207.55763365 </i>
    <i name="e_0_energy">   -207.55816877 </i>
   </energy>
  </scstep>
  <structure>
   <crystal>
    <varray name="basis" >
     <v>       8.07536382       0.00000000       0.00000000 </v>
     <v>       0.00000000       8.07536382       0.00000000 </v>
     <v>       0.00000000       0.00000000      12.74388286 </v>
    </varray>
    <i name="volume">    831.04772771 </i>
    <varray name="rec_basis" >
     <v>       0.12383343       0.00000000       0.00000000 </v>
     <v>       0.00000000       0.12383343       0.00000000 </v>
     <v>       0.00000000       0.00000000       0.07846902 </v>
    </varray>
   </crystal>
   <varray name="positions" >
    <v>       0.24889765       0.24889765       0.84984082 </v>
    <v>       0.75110235       0.24889765       0.84984082 </v>
    <v>       0.24889765       0.75110235       0.84984082 </v>
    <v>       0.75110235       0.75110235       0.84984082 </v>
    <v>       0.00000000       0.00000000       0.65063101 </v>
    <v>       0.50000000       0.00000000       0.65206419 </v>
    <v>       0.00000000       0.50000000       0.65206419 </v>
    <v>       0.50000000       0.50000000       0.65357213 </v>
    <v>       0.00000000       0.00000000       0.34936899 </v>
    <v>       0.50000000       0.00000000       0.34793581 </v>
    <v>       0.00000000       0.50000000       0.34793581 </v>
    <v>       0.50000000       0.50000000       0.34642787 </v>
    <v>       0.24889765       0.24889765       0.15015918 </v>
    <v>       0.75110235       0.24889765       0.15015918 </v>
    <v>       0.24889765       0.75110235       0.15015918 </v>
    <v>       0.75110235       0.75110235       0.15015918 </v>
    <v>       0.50000000       0.00000000       0.00000000 </v>
    <v>       0.00000000       0.50000000       0.00000000 </v>
    <v>       0.50000000       0.50000000       0.00000000 </v>
    <v>       0.24844656       0.24844656       0.50000000 </v>
    <v>       0.75155344       0.24844656       0.50000000 </v>
    <v>       0.24844656       0.75155344       0.50000000 </v>
    <v>       0.75155344       0.75155344       0.50000000 </v>
    <v>       0.00000000       0.24997744       0.75078933 </v>
    <v>       0.50000000       0.25010073       0.75115017 </v>
    <v>       0.00000000       0.75002256       0.75078933 </v>
    <v>       0.50000000       0.74989927       0.75115017 </v>
    <v>       0.24997744       0.00000000       0.75078933 </v>
    <v>       0.75002256       0.00000000       0.75078933 </v>
    <v>       0.25010073       0.50000000       0.75115017 </v>
    <v>       0.74989927       0.50000000       0.75115017 </v>
    <v>       0.24997744       0.00000000       0.24921067 </v>
    <v>       0.75002256       0.00000000       0.24921067 </v>
    <v>       0.25010073       0.50000000       0.24884983 </v>
    <v>       0.74989927       0.50000000       0.24884983 </v>
    <v>       0.00000000       0.24997744       0.24921067 </v>
    <v>       0.50000000       0.25010073       0.24884983 </v>
    <v>       0.00000000       0.75002256       0.24921067 </v>
    <v>       0.50000000       0.74989927       0.24884983 </v>
    <v>       0.00000000       0.00000000       0.00000000 </v>
   </varray>
  </structure>
  <varray name="forces" >
   <v>       0.00000052       0.00000052       0.00001132 </v>
   <v>      -0.00000052       0.00000052       0.00001132 </v>
   <v>       0.00000052      -0.00000052       0.00001132 </v>
   <v>      -0.00000052      -0.00000052       0.00001132 </v>
   <v>       0.00000000       0.00000000       0.00003028 </v>
   <v>      -0.00000000       0.00000000       0.00001496 </v>
   <v>       0.00000000       0.00000000       0.00001496 </v>
   <v>      -0.00000000       0.00000000      -0.00000034 </v>
   <v>       0.00000000       0.00000000      -0.00003028 </v>
   <v>      -0.00000000       0.00000000      -0.00001496 </v>
   <v>      -0.00000000       0.00000000      -0.00001496 </v>
   <v>       0.00000000       0.00000000       0.00000034 </v>
   <v>       0.00000052       0.00000052      -0.00001132 </v>
   <v>      -0.00000052       0.00000052      -0.00001132 </v>
   <v>       0.00000052      -0.00000052      -0.00001132 </v>
   <v>      -0.00000052      -0.00000052      -0.00001132 </v>
   <v>      -0.00000000       0.00000000      -0.00000000 </v>
   <v>      -0.00000000       0.00000000      -0.00000000 </v>
   <v>      -0.00000000       0.00000000      -0.00000000 </v>
   <v>       0.00001965       0.00001965      -0.00000000 </v>
   <v>      -0.00001965       0.00001965      -0.00000000 </v>
   <v>       0.00001965      -0.00001965      -0.00000000 </v>
   <v>      -0.00001965      -0.00001965      -0.00000000 </v>
   <v>       0.00000000       0.00000392      -0.00000427 </v>
   <v>       0.00000000      -0.00000560       0.00000931 </v>
   <v>       0.00000000      -0.00000392      -0.00000427 </v>
   <v>       0.00000000       0.00000560       0.00000931 </v>
   <v>       0.00000392       0.00000000      -0.00000427 </v>
   <v>      -0.00000392       0.00000000      -0.00000427 </v>
   <v>      -0.00000560       0.00000000       0.00000931 </v>
   <v>       0.00000560       0.00000000       0.00000931 </v>
   <v>       0.00000392       0.00000000       0.00000427 </v>
   <v>      -0.00000392       0.00000000       0.00000427 </v>
   <v>      -0.00000560       0.00000000      -0.00000931 </v>
   <v>       0.00000560       0.00000000      -0.00000931 </v>
   <v>      -0.00000000       0.00000392       0.00000427 </v>
   <v>      -0.00000000      -0.00000560      -0.00000931 </v>
   <v>      -0.00000000      -0.00000392       0.00000427 </v>
   <v>      -0.00000000       0.00000560      -0.00000931 </v>
   <v>       0.00000000       0.00000000      -0.00000000 </v>
  </varray>
  <varray name="stress" >
   <v>     -61.93498412       0.00000000       0.00000000 </v>
   <v>       0.00000000     -61.93498412       0.00000000 </v>
   <v>       0.00000000       0.00000000     -45.93601011 </v>
  </varray>
  <energy>
   <i name="e_fr_energy">   -207.55870390 </i>
   <i name="e_wo_entrp">   -207.55763365 </i>
   <i name="e_0_energy">   -207.55816877 </i>
  </energy>
  <time name="totalsc">  903.95  904.13</time>
 </calculation>
 <calculation>
  <scstep>
   <time name="dav">   33.86   33.86</time>
   <time name="total">   35.87   35.88</time>
   <energy>
    <i name="alphaZ">   1215.52124893 </i>
    <i name="ewald"> -28165.03141733 </i>
    <i name="hartreedc"> -12358.40811898 </i>
    <i name="XCdc">   1243.47486914 </i>
    <i name="pawpsdc">  35646.83199794 </i>
    <i name="pawaedc"> -35036.84483951 </i>
    <i name="eentropy">     -0.00107023 </i>
    <i name="bandstr">  -3094.75321975 </i>
    <i name="atom">  40341.65184589 </i>
    <i name="e_fr_energy">   -207.55870390 </i>
    <i name="e_wo_entrp">   -207.55763366 </i>
    <i name="e_0_energy">   -207.55816878 </i>
   </energy>
  </scstep>
  <scstep>
   <time name="dav">   24.96   24.96</time>
   <time name="total">   26.98   26.98</time>
   <energy>
    <i name="e_fr_energy">   -207.55870390 </i>
    <i name="e_wo_entrp">   -207.55763360 </i>
    <i name="e_0_energy">   -207.55816875 </i>
   </energy>
  </scstep>
  <scstep>
   <time name="dav">   24.96   24.96</time>
   <time name="total">   26.97   26.97</time>
   <energy>
    <i name="e_fr_energy">   -207.55870390 </i>
    <i name="e_wo_entrp">   -207.55763360 </i>
    <i name="e_0_energy">   -207.55816875 </i>
   </energy>
  </scstep>
  <scstep>
   <time name="dav">   24.96   24.96</time>
   <time name="total">   26.97   26.98</time>
   <energy>
    <i name="e_fr_energy">   -207.55870389 </i>
    <i name="e_wo_entrp">   -207.55763360 </i>
    <i name="e_0_energy">   -207.55816874 </i>
   </energy>
  </scstep>
  <scstep>
   <time name="dav">   24.95   24.95</time>
   <time name="total">   25.75   25.75</time>
   <energy>
    <i name="alphaZ">   1215.52124893 </i>
    <i name="ewald"> -28165.03141733 </i>
    <i name="hartreedc"> -12358.40786170 </i>
    <i name="XCdc">   1243.47485056 </i>
    <i name="pawpsdc">  35646.83068556 </i>
    <i name="pawaedc"> -35036.84350907 </i>
    <i name="eentropy">     -0.00107030 </i>
    <i name="bandstr">  -3094.75347643 </i>
    <i name="atom">  40341.65184589 </i>
    <i name="e_fr_energy">   -207.55870390 </i>
    <i name="e_wo_entrp">   -207.55763359 </i>
    <i name="e_0_energy">   -207.55816874 </i>
   </energy>
  </scstep>
  <structure>
   <crystal>
    <varray name="basis" >
     <v>       8.07536382       0.00000000       0.00000000 </v>
     <v>       0.00000000       8.07536382       0.00000000 </v>
     <v>       0.00000000       0.00000000      12.74388286 </v>
    </varray>
    <i name="volume">    831.04772771 </i>
    <varray name="rec_basis" >
     <v>       0.12383343       0.00000000       0.00000000 </v>
     <v>       0.00000000       0.12383343       0.00000000 </v>
     <v>       0.00000000       0.00000000       0.07846902 </v>
    </varray>
   </crystal>
   <varray name="positions" >
    <v>       0.24889766       0.24889766       0.84984087 </v>
    <v>       0.75110234       0.24889766       0.84984087 </v>
    <v>       0.24889766       0.75110234       0.84984087 </v>
    <v>       0.75110234       0.75110234       0.84984087 </v>
    <v>       0.00000000       0.00000000       0.65063113 </v>
    <v>       0.50000000       0.00000000       0.65206424 </v>
    <v>       0.00000000       0.50000000       0.65206424 </v>
    <v>       0.50000000       0.50000000       0.65357213 </v>
    <v>       0.00000000       0.00000000       0.34936887 </v>
    <v>       0.50000000       0.00000000       0.34793576 </v>
    <v>       1.00000000       0.50000000       0.34793576 </v>
    <v>       0.50000000       0.50000000       0.34642787 </v>
    <v>       0.24889766       0.24889766       0.15015913 </v>
    <v>       0.75110234       0.24889766       0.15015913 </v>
    <v>       0.24889766       0.75110234       0.15015913 </v>
    <v>       0.75110234       0.75110234       0.15015913 </v>
    <v>       0.50000000       0.00000000       1.00000000 </v>
    <v>       1.00000000       0.50000000       1.00000000 </v>
    <v>       0.50000000       0.50000000       1.00000000 </v>
    <v>       0.24844667       0.24844667       0.50000000 </v>
    <v>       0.75155333       0.24844667       0.50000000 </v>
    <v>       0.24844667       0.75155333       0.50000000 </v>
    <v>       0.75155333       0.75155333       0.50000000 </v>
    <v>       0.00000000       0.24997746       0.75078932 </v>
    <v>       0.50000000       0.25010069       0.75115020 </v>
    <v>       0.00000000       0.75002254       0.75078932 </v>
    <v>       0.50000000       0.74989931       0.75115020 </v>
    <v>       0.24997746       0.00000000       0.75078932 </v>
    <v>       0.75002254       0.00000000       0.75078932 </v>
    <v>       0.25010069       0.50000000       0.75115020 </v>
    <v>       0.74989931       0.50000000       0.75115020 </v>
    <v>       0.24997746       0.00000000       0.24921068 </v>
    <v>       0.75002254       0.00000000       0.24921068 </v>
    <v>       0.25010069       0.50000000       0.24884980 </v>
    <v>       0.74989931       0.50000000       0.24884980 </v>
    <v>       1.00000000       0.24997746       0.24921068 </v>
    <v>       0.50000000       0.25010069       0.24884980 </v>
    <v>       1.00000000       0.75002254       0.24921068 </v>
    <v>       0.50000000       0.74989931       0.24884980 </v>
    <v>       0.00000000       0.00000000       1.00000000 </v>
   </varray>
  </structure>
  <varray name="forces" >
   <v>       0.00000377       0.00000377      -0.00000680 </v>
   <v>      -0.00000377       0.00000377      -0.00000680 </v>
   <v>       0.00000377      -0.00000377      -0.00000680 </v>
   <v>      -0.00000377      -0.00000377      -0.00000680 </v>
   <v>      -0.00000000       0.00000000      -0.00001784 </v>
   <v>      -0.00000000       0.00000000      -0.00001434 </v>
   <v>      -0.00000000       0.00000000      -0.00001434 </v>
   <v>      -0.00000000       0.00000000      -0.00000566 </v>
   <v>      -0.00000000       0.00000000       0.00001784 </v>
   <v>      -0.00000000       0.00000000       0.00001434 </v>
   <v>      -0.00000000       0.00000000       0.00001434 </v>
   <v>      -0.00000000       0.00000000       0.00000566 </v>
   <v>       0.00000377       0.00000377       0.00000680 </v>
   <v>      -0.00000377       0.00000377       0.00000680 </v>
   <v>       0.00000377      -0.00000377       0.00000680 </v>
   <v>      -0.00000377      -0.00000377       0.00000680 </v>
   <v>      -0.00000000       0.00000000       0.00000000 </v>
   <v>      -0.00000000       0.00000000       0.00000000 </v>
   <v>      -0.00000000       0.00000000       0.00000000 </v>
   <v>       0.00001850       0.00001850       0.00000000 </v>
   <v>      -0.00001850       0.00001850       0.00000000 </v>
   <v>       0.00001850      -0.00001850       0.00000000 </v>
   <v>      -0.00001850      -0.00001850       0.00000000 </v>
   <v>      -0.00000000       0.00000047       0.00000138 </v>
   <v>      -0.00000000      -0.00000397       0.00001194 </v>
   <v>      -0.00000000      -0.00000047       0.00000138 </v>
   <v>      -0.00000000       0.00000397       0.00001194 </v>
   <v>       0.00000047       0.00000000       0.00000138 </v>
   <v>      -0.00000047       0.00000000       0.00000138 </v>
   <v>      -0.00000397       0.00000000       0.00001194 </v>
   <v>       0.00000397       0.00000000       0.00001194 </v>
   <v>       0.00000047       0.00000000      -0.00000138 </v>
   <v>      -0.00000047       0.00000000      -0.00000138 </v>
   <v>      -0.00000397       0.00000000      -0.00001194 </v>
   <v>       0.00000397       0.00000000      -0.00001194 </v>
   <v>      -0.00000000       0.00000047      -0.00000138 </v>
   <v>      -0.00000000      -0.00000397      -0.00001194 </v>
   <v>      -0.00000000      -0.00000047      -0.00000138 </v>
   <v>      -0.00000000       0.00000397      -0.00001194 </v>
   <v>      -0.00000000       0.00000000       0.00000000 </v>
  </varray>
  <varray name="stress" >
   <v>     -61.93640412       0.00000000       0.00000000 </v>
   <v>       0.00000000     -61.93640412       0.00000000 </v>
   <v>       0.00000000       0.00000000     -45.93767905 </v>
  </varray>
  <energy>
   <i name="e_fr_energy">   -207.55870390 </i>
   <i name="e_wo_entrp">   -207.55763359 </i>
   <i name="e_0_energy">   -207.55816874 </i>
  </energy>
  <time name="totalsc">  176.28  176.30</time>
 </calculation>
 <calculation>
  <scstep>
   <time name="dav">   24.92   24.93</time>
   <time name="total">   26.94   26.94</time>
   <energy>
    <i name="alphaZ">   1215.52124893 </i>
    <i name="ewald"> -28165.03125333 </i>
    <i name="hartreedc"> -12358.40803674 </i>
    <i name="XCdc">   1243.47485175 </i>
    <i name="pawpsdc">  35646.83033245 </i>
    <i name="pawaedc"> -35036.84315378 </i>
    <i name="eentropy">     -0.00107031 </i>
    <i name="bandstr">  -3094.75346876 </i>
    <i name="atom">  40341.65184589 </i>
    <i name="e_fr_energy">   -207.55870390 </i>
    <i name="e_wo_entrp">   -207.55763359 </i>
    <i name="e_0_energy">   -207.55816874 </i>
   </energy>
  </scstep>
  <scstep>
   <time name="dav">   24.66   24.68</time>
   <time name="total">   26.67   26.69</time>
   <energy>
    <i name="e_fr_energy">   -207.55870389 </i>
    <i name="e_wo_entrp">   -207.55763358 </i>
    <i name="e_0_energy">   -207.55816874 </i>
   </energy>
  </scstep>
  <scstep>
   <time name="dav">   24.46   24.46</time>
   <time name="total">   26.48   26.48</time>
   <energy>
    <i name="e_fr_energy">   -207.55870389 </i>
    <i name="e_wo_entrp">   -207.55763358 </i>
    <i name="e_0_energy">   -207.55816873 </i>
   </energy>
  </scstep>
  <scstep>
   <time name="dav">   24.35   24.36</time>
   <time name="total">   26.36   26.37</time>
   <energy>
    <i name="e_fr_energy">   -207.55870389 </i>
    <i name="e_wo_entrp">   -207.55763357 </i>
    <i name="e_0_energy">   -207.55816873 </i>
   </energy>
  </scstep>
  <scstep>
   <time name="dav">   24.31   24.32</time>
   <time name="total">   25.10   25.11</time>
   <energy>
    <i name="alphaZ">   1215.52124893 </i>
    <i name="ewald"> -28165.03125333 </i>
    <i name="hartreedc"> -12358.40802840 </i>
    <i name="XCdc">   1243.47485152 </i>
    <i name="pawpsdc">  35646.83021987 </i>
    <i name="pawaedc"> -35036.84304309 </i>
    <i name="eentropy">     -0.00107032 </i>
    <i name="bandstr">  -3094.75347497 </i>
    <i name="atom">  40341.65184589 </i>
    <i name="e_fr_energy">   -207.55870389 </i>
    <i name="e_wo_entrp">   -207.55763357 </i>
    <i name="e_0_energy">   -207.55816873 </i>
   </energy>
  </scstep>
  <structure>
   <crystal>
    <varray name="basis" >
     <v>       8.07536382       0.00000000       0.00000000 </v>
     <v>       0.00000000       8.07536382       0.00000000 </v>
     <v>       0.00000000       0.00000000      12.74388286 </v>
    </varray>
    <i name="volume">    831.04772771 </i>
    <varray name="rec_basis" >
     <v>       0.12383343       0.00000000       0.00000000 </v>
     <v>       0.00000000       0.12383343       0.00000000 </v>
     <v>       0.00000000       0.00000000       0.07846902 </v>
    </varray>
   </crystal>
   <varray name="positions" >
    <v>       0.24889766       0.24889766       0.84984088 </v>
    <v>       0.75110234       0.24889766       0.84984088 </v>
    <v>       0.24889766       0.75110234       0.84984088 </v>
    <v>       0.75110234       0.75110234       0.84984088 </v>
    <v>       0.00000000       0.00000000       0.65063115 </v>
    <v>       0.50000000       0.00000000       0.65206426 </v>
    <v>       0.00000000       0.50000000       0.65206426 </v>
    <v>       0.50000000       0.50000000       0.65357213 </v>
    <v>       0.00000000       0.00000000       0.34936885 </v>
    <v>       0.50000000       0.00000000       0.34793574 </v>
    <v>       0.00000000       0.50000000       0.34793574 </v>
    <v>       0.50000000       0.50000000       0.34642787 </v>
    <v>       0.24889766       0.24889766       0.15015912 </v>
    <v>       0.75110234       0.24889766       0.15015912 </v>
    <v>       0.24889766       0.75110234       0.15015912 </v>
    <v>       0.75110234       0.75110234       0.15015912 </v>
    <v>       0.50000000       0.00000000       0.00000000 </v>
    <v>       0.00000000       0.50000000       0.00000000 </v>
    <v>       0.50000000       0.50000000       0.00000000 </v>
    <v>       0.24844670       0.24844670       0.50000000 </v>
    <v>       0.75155330       0.24844670       0.50000000 </v>
    <v>       0.24844670       0.75155330       0.50000000 </v>
    <v>       0.75155330       0.75155330       0.50000000 </v>
    <v>       0.00000000       0.24997747       0.75078931 </v>
    <v>       0.50000000       0.25010069       0.75115021 </v>
    <v>       0.00000000       0.75002253       0.75078931 </v>
    <v>       0.50000000       0.74989931       0.75115021 </v>
    <v>       0.24997747       0.00000000       0.75078931 </v>
    <v>       0.75002253       0.00000000       0.75078931 </v>
    <v>       0.25010069       0.50000000       0.75115021 </v>
    <v>       0.74989931       0.50000000       0.75115021 </v>
    <v>       0.24997747       0.00000000       0.24921069 </v>
    <v>       0.75002253       0.00000000       0.24921069 </v>
    <v>       0.25010069       0.50000000       0.24884979 </v>
    <v>       0.74989931       0.50000000       0.24884979 </v>
    <v>       0.00000000       0.24997747       0.24921069 </v>
    <v>       0.50000000       0.25010069       0.24884979 </v>
    <v>       0.00000000       0.75002253       0.24921069 </v>
    <v>       0.50000000       0.74989931       0.24884979 </v>
    <v>       0.00000000       0.00000000       0.00000000 </v>
   </varray>
  </structure>
  <varray name="forces" >
   <v>       0.00000395       0.00000395      -0.00000507 </v>
   <v>      -0.00000395       0.00000395      -0.00000507 </v>
   <v>       0.00000395      -0.00000395      -0.00000507 </v>
   <v>      -0.00000395      -0.00000395      -0.00000507 </v>
   <v>       0.00000000       0.00000000      -0.00001331 </v>
   <v>       0.00000000       0.00000000      -0.00001302 </v>
   <v>       0.00000000       0.00000000      -0.00001302 </v>
   <v>       0.00000000       0.00000000      -0.00000668 </v>
   <v>       0.00000000       0.00000000       0.00001331 </v>
   <v>       0.00000000       0.00000000       0.00001302 </v>
   <v>       0.00000000       0.00000000       0.00001302 </v>
   <v>       0.00000000       0.00000000       0.00000668 </v>
   <v>       0.00000395       0.00000395       0.00000507 </v>
   <v>      -0.00000395       0.00000395       0.00000507 </v>
   <v>       0.00000395      -0.00000395       0.00000507 </v>
   <v>      -0.00000395      -0.00000395       0.00000507 </v>
   <v>       0.00000000       0.00000000       0.00000000 </v>
   <v>       0.00000000       0.00000000       0.00000000 </v>
   <v>       0.00000000       0.00000000       0.00000000 </v>
   <v>       0.00001833       0.00001833       0.00000000 </v>
   <v>      -0.00001833       0.00001833       0.00000000 </v>
   <v>       0.00001833      -0.00001833       0.00000000 </v>
   <v>      -0.00001833      -0.00001833       0.00000000 </v>
   <v>       0.00000000      -0.00000117       0.00000326 </v>
   <v>       0.00000000      -0.00000382       0.00001300 </v>
   <v>       0.00000000       0.00000117       0.00000326 </v>
   <v>       0.00000000       0.00000382       0.00001300 </v>
   <v>      -0.00000117       0.00000000       0.00000326 </v>
   <v>       0.00000117       0.00000000       0.00000326 </v>
   <v>      -0.00000382       0.00000000       0.00001300 </v>
   <v>       0.00000382       0.00000000       0.00001300 </v>
   <v>      -0.00000117       0.00000000      -0.00000326 </v>
   <v>       0.00000117       0.00000000      -0.00000326 </v>
   <v>      -0.00000382       0.00000000      -0.00001300 </v>
   <v>       0.00000382       0.00000000      -0.00001300 </v>
   <v>       0.00000000      -0.00000117      -0.00000326 </v>
   <v>       0.00000000      -0.00000382      -0.00001300 </v>
   <v>       0.00000000       0.00000117      -0.00000326 </v>
   <v>       0.00000000       0.00000382      -0.00001300 </v>
   <v>       0.00000000       0.00000000       0.00000000 </v>
  </varray>
  <varray name="stress" >
   <v>     -61.93639257       0.00000000       0.00000000 </v>
   <v>       0.00000000     -61.93639257       0.00000000 </v>
   <v>       0.00000000       0.00000000     -45.93767243 </v>
  </varray>
  <energy>
   <i name="e_fr_energy">   -207.55870389 </i>
   <i name="e_wo_entrp">   -207.55763357 </i>
   <i name="e_0_energy">   -207.55816873 </i>
  </energy>
  <time name="totalsc">  165.36  165.41</time>
 </calculation>
 <calculation>
  <scstep>
   <time name="dav">   26.18   26.18</time>
   <time name="total">   28.20   28.20</time>
   <energy>
    <i name="alphaZ">   1215.52124893 </i>
    <i name="ewald"> -28165.03092532 </i>
    <i name="hartreedc"> -12358.40834471 </i>
    <i name="XCdc">   1243.47485228 </i>
    <i name="pawpsdc">  35646.83014075 </i>
    <i name="pawaedc"> -35036.84296419 </i>
    <i name="eentropy">     -0.00107033 </i>
    <i name="bandstr">  -3094.75348720 </i>
    <i name="atom">  40341.65184589 </i>
    <i name="e_fr_energy">   -207.55870389 </i>
    <i name="e_wo_entrp">   -207.55763357 </i>
    <i name="e_0_energy">   -207.55816873 </i>
   </energy>
  </scstep>
  <scstep>
   <time name="dav">   24.25   24.25</time>
   <time name="total">   26.27   26.27</time>
   <energy>
    <i name="e_fr_energy">   -207.55870389 </i>
    <i name="e_wo_entrp">   -207.55763355 </i>
    <i name="e_0_energy">   -207.55816872 </i>
   </energy>
  </scstep>
  <scstep>
   <time name="dav">   24.18   24.19</time>
   <time name="total">   26.19   26.20</time>
   <energy>
    <i name="e_fr_energy">   -207.55870389 </i>
    <i name="e_wo_entrp">   -207.55763354 </i>
    <i name="e_0_energy">   -207.55816872 </i>
   </energy>
  </scstep>
  <scstep>
   <time name="dav">   24.11   24.11</time>
   <time name="total">   26.12   26.13</time>
   <energy>
    <i name="e_fr_energy">   -207.55870389 </i>
    <i name="e_wo_entrp">   -207.55763354 </i>
    <i name="e_0_energy">   -207.55816872 </i>
   </energy>
  </scstep>
  <scstep>
   <time name="dav">   23.91   23.91</time>
   <time name="total">   24.70   24.71</time>
   <energy>
    <i name="alphaZ">   1215.52124893 </i>
    <i name="ewald"> -28165.03092532 </i>
    <i name="hartreedc"> -12358.40834077 </i>
    <i name="XCdc">   1243.47485257 </i>
    <i name="pawpsdc">  35646.83020053 </i>
    <i name="pawaedc"> -35036.84302493 </i>
    <i name="eentropy">     -0.00107035 </i>
    <i name="bandstr">  -3094.75349043 </i>
    <i name="atom">  40341.65184589 </i>
    <i name="e_fr_energy">   -207.55870389 </i>
    <i name="e_wo_entrp">   -207.55763354 </i>
    <i name="e_0_energy">   -207.55816872 </i>
   </energy>
  </scstep>
  <structure>
   <crystal>
    <varray name="basis" >
     <v>       8.07536382       0.00000000       0.00000000 </v>
     <v>       0.00000000       8.07536382       0.00000000 </v>
     <v>       0.00000000       0.00000000      12.74388286 </v>
    </varray>
    <i name="volume">    831.04772771 </i>
    <varray name="rec_basis" >
     <v>       0.12383343       0.00000000       0.00000000 </v>
     <v>       0.00000000       0.12383343       0.00000000 </v>
     <v>       0.00000000       0.00000000       0.07846902 </v>
    </varray>
   </crystal>
   <varray name="positions" >
    <v>       0.24889766       0.24889766       0.84984089 </v>
    <v>       0.75110234       0.24889766       0.84984089 </v>
    <v>       0.24889766       0.75110234       0.84984089 </v>
    <v>       0.75110234       0.75110234       0.84984089 </v>
    <v>       0.00000000       0.00000000       0.65063120 </v>
    <v>       0.50000000       0.00000000       0.65206428 </v>
    <v>       0.00000000       0.50000000       0.65206428 </v>
    <v>       0.50000000       0.50000000       0.65357213 </v>
    <v>       0.00000000       0.00000000       0.34936880 </v>
    <v>       0.50000000       0.00000000       0.34793572 </v>
    <v>       1.00000000       0.50000000       0.34793572 </v>
    <v>       0.50000000       0.50000000       0.34642787 </v>
    <v>       0.24889766       0.24889766       0.15015911 </v>
    <v>       0.75110234       0.24889766       0.15015911 </v>
    <v>       0.24889766       0.75110234       0.15015911 </v>
    <v>       0.75110234       0.75110234       0.15015911 </v>
    <v>       0.50000000       0.00000000       1.00000000 </v>
    <v>       1.00000000       0.50000000       1.00000000 </v>
    <v>       0.50000000       0.50000000       1.00000000 </v>
    <v>       0.24844675       0.24844675       0.50000000 </v>
    <v>       0.75155325       0.24844675       0.50000000 </v>
    <v>       0.24844675       0.75155325       0.50000000 </v>
    <v>       0.75155325       0.75155325       0.50000000 </v>
    <v>       0.00000000       0.24997748       0.75078931 </v>
    <v>       0.50000000       0.25010067       0.75115023 </v>
    <v>       0.00000000       0.75002252       0.75078931 </v>
    <v>       0.50000000       0.74989933       0.75115023 </v>
    <v>       0.24997748       0.00000000       0.75078931 </v>
    <v>       0.75002252       0.00000000       0.75078931 </v>
    <v>       0.25010067       0.50000000       0.75115023 </v>
    <v>       0.74989933       0.50000000       0.75115023 </v>
    <v>       0.24997748       0.00000000       0.24921069 </v>
    <v>       0.75002252       0.00000000       0.24921069 </v>
    <v>       0.25010067       0.50000000       0.24884977 </v>
    <v>       0.74989933       0.50000000       0.24884977 </v>
    <v>       1.00000000       0.24997748       0.24921069 </v>
    <v>       0.50000000       0.25010067       0.24884977 </v>
    <v>       1.00000000       0.75002252       0.24921069 </v>
    <v>       0.50000000       0.74989933       0.24884977 </v>
    <v>       0.00000000       0.00000000       1.00000000 </v>
   </varray>
  </structure>
  <varray name="forces" >
   <v>       0.00000480       0.00000480      -0.00000379 </v>
   <v>      -0.00000480       0.00000480      -0.00000379 </v>
   <v>       0.00000480      -0.00000480      -0.00000379 </v>
   <v>      -0.00000480      -0.00000480      -0.00000379 </v>
   <v>      -0.00000000       0.00000000      -0.00000641 </v>
   <v>      -0.00000000       0.00000000      -0.00001192 </v>
   <v>      -0.00000000       0.00000000      -0.00001192 </v>
   <v>      -0.00000000       0.00000000      -0.00000859 </v>
   <v>      -0.00000000       0.00000000       0.00000641 </v>
   <v>      -0.00000000       0.00000000       0.00001192 </v>
   <v>      -0.00000000       0.00000000       0.00001192 </v>
   <v>      -0.00000000       0.00000000       0.00000859 </v>
   <v>       0.00000480       0.00000480       0.00000379 </v>
   <v>      -0.00000480       0.00000480       0.00000379 </v>
   <v>       0.00000480      -0.00000480       0.00000379 </v>
   <v>      -0.00000480      -0.00000480       0.00000379 </v>
   <v>      -0.00000000       0.00000000       0.00000000 </v>
   <v>      -0.00000000       0.00000000       0.00000000 </v>
   <v>      -0.00000000       0.00000000       0.00000000 </v>
   <v>       0.00001782       0.00001782       0.00000000 </v>
   <v>      -0.00001782       0.00001782       0.00000000 </v>
   <v>       0.00001782      -0.00001782       0.00000000 </v>
   <v>      -0.00001782      -0.00001782       0.00000000 </v>
   <v>      -0.00000000      -0.00000298       0.00000598 </v>
   <v>      -0.00000000      -0.00000320       0.00001415 </v>
   <v>      -0.00000000       0.00000298       0.00000598 </v>
   <v>      -0.00000000       0.00000320       0.00001415 </v>
   <v>      -0.00000298       0.00000000       0.00000598 </v>
   <v>       0.00000298       0.00000000       0.00000598 </v>
   <v>      -0.00000320       0.00000000       0.00001415 </v>
   <v>       0.00000320       0.00000000       0.00001415 </v>
   <v>      -0.00000298       0.00000000      -0.00000598 </v>
   <v>       0.00000298       0.00000000      -0.00000598 </v>
   <v>      -0.00000320       0.00000000      -0.00001415 </v>
   <v>       0.00000320       0.00000000      -0.00001415 </v>
   <v>      -0.00000000      -0.00000298      -0.00000598 </v>
   <v>      -0.00000000      -0.00000320      -0.00001415 </v>
   <v>      -0.00000000       0.00000298      -0.00000598 </v>
   <v>      -0.00000000       0.00000320      -0.00001415 </v>
   <v>      -0.00000000       0.00000000       0.00000000 </v>
  </varray>
  <varray name="stress" >
   <v>     -61.93639357       0.00000000       0.00000000 </v>
   <v>       0.00000000     -61.93639357       0.00000000 </v>
   <v>       0.00000000       0.00000000     -45.93767881 </v>
  </varray>
  <energy>
   <i name="e_fr_energy">   -207.55870389 </i>
   <i name="e_wo_entrp">   -207.55763354 </i>
   <i name="e_0_energy">   -207.55816872 </i>
  </energy>
  <time name="totalsc">  165.26  165.29</time>
 </calculation>
 <calculation>
  <scstep>
   <time name="dav">   31.74   31.74</time>
   <time name="total">   33.76   33.76</time>
   <energy>
    <i name="alphaZ">   1215.52124893 </i>
    <i name="ewald"> -28165.03026931 </i>
    <i name="hartreedc"> -12358.40897416 </i>
    <i name="XCdc">   1243.47485386 </i>
    <i name="pawpsdc">  35646.83019709 </i>
    <i name="pawaedc"> -35036.84302169 </i>
    <i name="eentropy">     -0.00107036 </i>
    <i name="bandstr">  -3094.75351415 </i>
    <i name="atom">  40341.65184589 </i>
    <i name="e_fr_energy">   -207.55870389 </i>
    <i name="e_wo_entrp">   -207.55763353 </i>
    <i name="e_0_energy">   -207.55816871 </i>
   </energy>
  </scstep>
  <scstep>
   <time name="dav">   23.92   23.92</time>
   <time name="total">   25.93   25.93</time>
   <energy>
    <i name="e_fr_energy">   -207.55870389 </i>
    <i name="e_wo_entrp">   -207.55763349 </i>
    <i name="e_0_energy">   -207.55816869 </i>
   </energy>
  </scstep>
  <scstep>
   <time name="dav">   23.90   23.91</time>
   <time name="total">   25.92   25.92</time>
   <energy>
    <i name="e_fr_energy">   -207.55870390 </i>
    <i name="e_wo_entrp">   -207.55763349 </i>
    <i name="e_0_energy">   -207.55816869 </i>
   </energy>
  </scstep>
  <scstep>
   <time name="dav">   23.87   23.87</time>
   <time name="total">   25.88   25.88</time>
   <energy>
    <i name="e_fr_energy">   -207.55870389 </i>
    <i name="e_wo_entrp">   -207.55763348 </i>
    <i name="e_0_energy">   -207.55816869 </i>
   </energy>
  </scstep>
  <scstep>
   <time name="dav">   23.78   23.79</time>
   <time name="total">   24.58   24.59</time>
   <energy>
    <i name="alphaZ">   1215.52124893 </i>
    <i name="ewald"> -28165.03026931 </i>
    <i name="hartreedc"> -12358.40896687 </i>
    <i name="XCdc">   1243.47485450 </i>
    <i name="pawpsdc">  35646.83034392 </i>
    <i name="pawaedc"> -35036.84317028 </i>
    <i name="eentropy">     -0.00107041 </i>
    <i name="bandstr">  -3094.75352027 </i>
    <i name="atom">  40341.65184589 </i>
    <i name="e_fr_energy">   -207.55870389 </i>
    <i name="e_wo_entrp">   -207.55763349 </i>
    <i name="e_0_energy">   -207.55816869 </i>
   </energy>
  </scstep>
  <structure>
   <crystal>
    <varray name="basis" >
     <v>       8.07536382       0.00000000       0.00000000 </v>
     <v>       0.00000000       8.07536382       0.00000000 </v>
     <v>       0.00000000       0.00000000      12.74388286 </v>
    </varray>
    <i name="volume">    831.04772771 </i>
    <varray name="rec_basis" >
     <v>       0.12383343       0.00000000       0.00000000 </v>
     <v>       0.00000000       0.12383343       0.00000000 </v>
     <v>       0.00000000       0.00000000       0.07846902 </v>
    </varray>
   </crystal>
   <varray name="positions" >
    <v>       0.24889766       0.24889766       0.84984093 </v>
    <v>       0.75110234       0.24889766       0.84984093 </v>
    <v>       0.24889766       0.75110234       0.84984093 </v>
    <v>       0.75110234       0.75110234       0.84984093 </v>
    <v>       0.00000000       0.00000000       0.65063130 </v>
    <v>       0.50000000       0.00000000       0.65206433 </v>
    <v>       0.00000000       0.50000000       0.65206433 </v>
    <v>       0.50000000       0.50000000       0.65357212 </v>
    <v>       0.00000000       0.00000000       0.34936870 </v>
    <v>       0.50000000       0.00000000       0.34793567 </v>
    <v>       0.00000000       0.50000000       0.34793567 </v>
    <v>       0.50000000       0.50000000       0.34642788 </v>
    <v>       0.24889766       0.24889766       0.15015907 </v>
    <v>       0.75110234       0.24889766       0.15015907 </v>
    <v>       0.24889766       0.75110234       0.15015907 </v>
    <v>       0.75110234       0.75110234       0.15015907 </v>
    <v>       0.50000000       0.00000000       0.00000000 </v>
    <v>       0.00000000       0.50000000       0.00000000 </v>
    <v>       0.50000000       0.50000000       0.00000000 </v>
    <v>       0.24844685       0.24844685       0.50000000 </v>
    <v>       0.75155315       0.24844685       0.50000000 </v>
    <v>       0.24844685       0.75155315       0.50000000 </v>
    <v>       0.75155315       0.75155315       0.50000000 </v>
    <v>       0.00000000       0.24997750       0.75078929 </v>
    <v>       0.50000000       0.25010064       0.75115026 </v>
    <v>       0.00000000       0.75002250       0.75078929 </v>
    <v>       0.50000000       0.74989936       0.75115026 </v>
    <v>       0.24997750       0.00000000       0.75078929 </v>
    <v>       0.75002250       0.00000000       0.75078929 </v>
    <v>       0.25010064       0.50000000       0.75115026 </v>
    <v>       0.74989936       0.50000000       0.75115026 </v>
    <v>       0.24997750       0.00000000       0.24921071 </v>
    <v>       0.75002250       0.00000000       0.24921071 </v>
    <v>       0.25010064       0.50000000       0.24884974 </v>
    <v>       0.74989936       0.50000000       0.24884974 </v>
    <v>       0.00000000       0.24997750       0.24921071 </v>
    <v>       0.50000000       0.25010064       0.24884974 </v>
    <v>       0.00000000       0.75002250       0.24921071 </v>
    <v>       0.50000000       0.74989936       0.24884974 </v>
    <v>       0.00000000       0.00000000       0.00000000 </v>
   </varray>
  </structure>
  <varray name="forces" >
   <v>       0.00000609       0.00000609      -0.00000993 </v>
   <v>      -0.00000609       0.00000609      -0.00000993 </v>
   <v>       0.00000609      -0.00000609      -0.00000993 </v>
   <v>      -0.00000609      -0.00000609      -0.00000993 </v>
   <v>       0.00000000      -0.00000000      -0.00002351 </v>
   <v>       0.00000000      -0.00000000      -0.00002127 </v>
   <v>       0.00000000       0.00000000      -0.00002127 </v>
   <v>       0.00000000      -0.00000000      -0.00001292 </v>
   <v>       0.00000000       0.00000000       0.00002351 </v>
   <v>       0.00000000       0.00000000       0.00002127 </v>
   <v>       0.00000000      -0.00000000       0.00002127 </v>
   <v>       0.00000000       0.00000000       0.00001292 </v>
   <v>       0.00000609       0.00000609       0.00000993 </v>
   <v>      -0.00000609       0.00000609       0.00000993 </v>
   <v>       0.00000609      -0.00000609       0.00000993 </v>
   <v>      -0.00000609      -0.00000609       0.00000993 </v>
   <v>       0.00000000       0.00000000       0.00000000 </v>
   <v>       0.00000000       0.00000000       0.00000000 </v>
   <v>       0.00000000       0.00000000       0.00000000 </v>
   <v>       0.00001808       0.00001808       0.00000000 </v>
   <v>      -0.00001808       0.00001808       0.00000000 </v>
   <v>       0.00001808      -0.00001808       0.00000000 </v>
   <v>      -0.00001808      -0.00001808       0.00000000 </v>
   <v>       0.00000000      -0.00000594       0.00001070 </v>
   <v>       0.00000000      -0.00000256       0.00001770 </v>
   <v>       0.00000000       0.00000594       0.00001070 </v>
   <v>       0.00000000       0.00000256       0.00001770 </v>
   <v>      -0.00000594      -0.00000000       0.00001070 </v>
   <v>       0.00000594      -0.00000000       0.00001070 </v>
   <v>      -0.00000256      -0.00000000       0.00001770 </v>
   <v>       0.00000256       0.00000000       0.00001770 </v>
   <v>      -0.00000594       0.00000000      -0.00001070 </v>
   <v>       0.00000594      -0.00000000      -0.00001070 </v>
   <v>      -0.00000256      -0.00000000      -0.00001770 </v>
   <v>       0.00000256      -0.00000000      -0.00001770 </v>
   <v>       0.00000000      -0.00000594      -0.00001070 </v>
   <v>       0.00000000      -0.00000256      -0.00001770 </v>
   <v>       0.00000000       0.00000594      -0.00001070 </v>
   <v>       0.00000000       0.00000256      -0.00001770 </v>
   <v>       0.00000000       0.00000000       0.00000000 </v>
  </varray>
  <varray name="stress" >
   <v>     -61.93635953       0.00000000       0.00000000 </v>
   <v>       0.00000000     -61.93635953       0.00000000 </v>
   <v>      -0.00000000       0.00000000     -45.93765759 </v>
  </varray>
  <energy>
   <i name="e_fr_energy">   -207.55870389 </i>
   <i name="e_wo_entrp">   -207.55763349 </i>
   <i name="e_0_energy">   -207.55816869 </i>
  </energy>
  <time name="totalsc">  169.89  169.92</time>
 </calculation>
 <calculation>
  <scstep>
   <time name="dav">   29.08   29.08</time>
   <time name="total">   31.10   31.10</time>
   <energy>
    <i name="alphaZ">   1215.52124893 </i>
    <i name="ewald"> -28165.03071005 </i>
    <i name="hartreedc"> -12358.40855022 </i>
    <i name="XCdc">   1243.47485290 </i>
    <i name="pawpsdc">  35646.83035352 </i>
    <i name="pawaedc"> -35036.84317995 </i>
    <i name="eentropy">     -0.00107041 </i>
    <i name="bandstr">  -3094.75349449 </i>
    <i name="atom">  40341.65184589 </i>
    <i name="e_fr_energy">   -207.55870389 </i>
    <i name="e_wo_entrp">   -207.55763348 </i>
    <i name="e_0_energy">   -207.55816869 </i>
   </energy>
  </scstep>
  <scstep>
   <time name="dav">   23.81   23.81</time>
   <time name="total">   25.82   25.82</time>
   <energy>
    <i name="e_fr_energy">   -207.55870389 </i>
    <i name="e_wo_entrp">   -207.55763350 </i>
    <i name="e_0_energy">   -207.55816870 </i>
   </energy>
  </scstep>
  <scstep>
   <time name="dav">   23.79   23.81</time>
   <time name="total">   25.81   25.82</time>
   <energy>
    <i name="e_fr_energy">   -207.55870389 </i>
    <i name="e_wo_entrp">   -207.55763350 </i>
    <i name="e_0_energy">   -207.55816870 </i>
   </energy>
  </scstep>
  <scstep>
   <time name="dav">   23.79   23.80</time>
   <time name="total">   25.81   25.81</time>
   <energy>
    <i name="e_fr_energy">   -207.55870390 </i>
    <i name="e_wo_entrp">   -207.55763350 </i>
    <i name="e_0_energy">   -207.55816870 </i>
   </energy>
  </scstep>
  <scstep>
   <time name="dav">   23.70   23.72</time>
   <time name="total">   24.50   24.52</time>
   <energy>
    <i name="alphaZ">   1215.52124893 </i>
    <i name="ewald"> -28165.03071005 </i>
    <i name="hartreedc"> -12358.40854165 </i>
    <i name="XCdc">   1243.47485188 </i>
    <i name="pawpsdc">  35646.83013375 </i>
    <i name="pawaedc"> -35036.84295781 </i>
    <i name="eentropy">     -0.00107039 </i>
    <i name="bandstr">  -3094.75350444 </i>
    <i name="atom">  40341.65184589 </i>
    <i name="e_fr_energy">   -207.55870389 </i>
    <i name="e_wo_entrp">   -207.55763350 </i>
    <i name="e_0_energy">   -207.55816870 </i>
   </energy>
  </scstep>
  <structure>
   <crystal>
    <varray name="basis" >
     <v>       8.07536382       0.00000000       0.00000000 </v>
     <v>       0.00000000       8.07536382       0.00000000 </v>
     <v>       0.00000000       0.00000000      12.74388286 </v>
    </varray>
    <i name="volume">    831.04772771 </i>
    <varray name="rec_basis" >
     <v>       0.12383343       0.00000000       0.00000000 </v>
     <v>       0.00000000       0.12383343       0.00000000 </v>
     <v>       0.00000000       0.00000000       0.07846902 </v>
    </varray>
   </crystal>
   <varray name="positions" >
    <v>       0.24889768       0.24889768       0.84984094 </v>
    <v>       0.75110232       0.24889768       0.84984094 </v>
    <v>       0.24889768       0.75110232       0.84984094 </v>
    <v>       0.75110232       0.75110232       0.84984094 </v>
    <v>       0.00000000       0.00000000       0.65063133 </v>
    <v>       0.50000000       0.00000000       0.65206433 </v>
    <v>       0.00000000       0.50000000       0.65206433 </v>
    <v>       0.50000000       0.50000000       0.65357210 </v>
    <v>       0.00000000       0.00000000       0.34936867 </v>
    <v>       0.50000000       0.00000000       0.34793567 </v>
    <v>       0.00000000       0.50000000       0.34793567 </v>
    <v>       0.50000000       0.50000000       0.34642790 </v>
    <v>       0.24889768       0.24889768       0.15015906 </v>
    <v>       0.75110232       0.24889768       0.15015906 </v>
    <v>       0.24889768       0.75110232       0.15015906 </v>
    <v>       0.75110232       0.75110232       0.15015906 </v>
    <v>       0.50000000       0.00000000       0.00000000 </v>
    <v>       0.00000000       0.50000000       0.00000000 </v>
    <v>       0.50000000       0.50000000       0.00000000 </v>
    <v>       0.24844697       0.24844697       0.50000000 </v>
    <v>       0.75155303       0.24844697       0.50000000 </v>
    <v>       0.24844697       0.75155303       0.50000000 </v>
    <v>       0.75155303       0.75155303       0.50000000 </v>
    <v>       0.00000000       0.24997750       0.75078930 </v>
    <v>       0.50000000       0.25010062       0.75115031 </v>
    <v>       0.00000000       0.75002250       0.75078930 </v>
    <v>       0.50000000       0.74989938       0.75115031 </v>
    <v>       0.24997750       0.00000000       0.75078930 </v>
    <v>       0.75002250       0.00000000       0.75078930 </v>
    <v>       0.25010062       0.50000000       0.75115031 </v>
    <v>       0.74989938       0.50000000       0.75115031 </v>
    <v>       0.24997750       0.00000000       0.24921070 </v>
    <v>       0.75002250       0.00000000       0.24921070 </v>
    <v>       0.25010062       0.50000000       0.24884969 </v>
    <v>       0.74989938       0.50000000       0.24884969 </v>
    <v>       0.00000000       0.24997750       0.24921070 </v>
    <v>       0.50000000       0.25010062       0.24884969 </v>
    <v>       0.00000000       0.75002250       0.24921070 </v>
    <v>       0.50000000       0.74989938       0.24884969 </v>
    <v>       0.00000000       0.00000000       0.00000000 </v>
   </varray>
  </structure>
  <varray name="forces" >
   <v>      -0.00000648      -0.00000648      -0.00000900 </v>
   <v>       0.00000648      -0.00000648      -0.00000900 </v>
   <v>      -0.00000648       0.00000648      -0.00000900 </v>
   <v>       0.00000648       0.00000648      -0.00000900 </v>
   <v>       0.00000000      -0.00000000      -0.00002396 </v>
[...]
       <r>    4.9472    1.0000 </r>
       <r>    4.9538    1.0000 </r>
       <r>    6.8508    0.0000 </r>
       <r>    6.8670    0.0000 </r>
       <r>    6.8670    0.0000 </r>
       <r>    6.8952    0.0000 </r>
       <r>    7.5209    0.0000 </r>
       <r>    7.5463    0.0000 </r>
       <r>    7.5463    0.0000 </r>
       <r>    7.5728    0.0000 </r>
       <r>    8.1408    0.0000 </r>
       <r>    8.1609    0.0000 </r>
       <r>    8.1731    0.0000 </r>
       <r>    8.1731    0.0000 </r>
       <r>    8.3616    0.0000 </r>
       <r>    8.3616    0.0000 </r>
       <r>    8.3898    0.0000 </r>
       <r>    8.4038    0.0000 </r>
       <r>    8.4308    0.0000 </r>
       <r>    8.4400    0.0000 </r>
       <r>    8.4686    0.0000 </r>
       <r>    8.4686    0.0000 </r>
       <r>    8.5121    0.0000 </r>
       <r>    8.5121    0.0000 </r>
       <r>    8.5281    0.0000 </r>
       <r>    8.5525    0.0000 </r>
       <r>    9.1408    0.0000 </r>
       <r>    9.1408    0.0000 </r>
       <r>    9.1510    0.0000 </r>
       <r>    9.1553    0.0000 </r>
       <r>    9.2842    0.0000 </r>
       <r>    9.2851    0.0000 </r>
       <r>    9.2851    0.0000 </r>
       <r>    9.3079    0.0000 </r>
       <r>    9.8553    0.0000 </r>
       <r>    9.8553    0.0000 </r>
       <r>    9.9076    0.0000 </r>
       <r>    9.9167    0.0000 </r>
       <r>    9.9307    0.0000 </r>
       <r>    9.9827    0.0000 </r>
       <r>    9.9850    0.0000 </r>
       <r>    9.9850    0.0000 </r>
      </set>
     </set>
    </set>
   </array>
  </eigenvalues>
  <separator name="orbital magnetization" >
   <v name="MAGDIPOLOUT">      0.00000000      0.00000000      0.00000000</v>
  </separator>
  <dos>
   <i name="efermi">      5.59079910 </i>
   <total>
    <array>
     <dimension dim="1">gridpoints</dimension>
     <dimension dim="2">spin</dimension>
     <field>energy</field>
     <field>total</field>
     <field>integrated</field>
     <set>
      <set comment="spin 1">
       <r>   -19.2150     0.0000     0.0000 </r>
       <r>   -19.1127     0.0000     0.0000 </r>
       <r>   -19.0104     0.0000     0.0000 </r>
       <r>   -18.9081     0.0000     0.0000 </r>
       <r>   -18.8059     0.0000     0.0000 </r>
       <r>   -18.7036     0.0000     0.0000 </r>
       <r>   -18.6013     0.0000     0.0000 </r>
       <r>   -18.4990     0.0000     0.0000 </r>
       <r>   -18.3967     0.0000     0.0000 </r>
       <r>   -18.2944     0.0000     0.0000 </r>
       <r>   -18.1921     0.0000     0.0000 </r>
       <r>   -18.0898     0.0000     0.0000 </r>
       <r>   -17.9876     0.0000     0.0000 </r>
       <r>   -17.8853     2.0893     0.2137 </r>
       <r>   -17.7830   146.3791    15.1864 </r>
       <r>   -17.6807   530.1980    69.4188 </r>
       <r>   -17.5784   854.9817   156.8724 </r>
       <r>   -17.4761    30.5744   159.9998 </r>
       <r>   -17.3738     0.0019   160.0000 </r>
       <r>   -17.2716     0.0000   160.0000 </r>
       <r>   -17.1693     0.0000   160.0000 </r>
       <r>   -17.0670     0.0000   160.0000 </r>
       <r>   -16.9647     0.0000   160.0000 </r>
       <r>   -16.8624     0.0000   160.0000 </r>
       <r>   -16.7601     0.0000   160.0000 </r>
       <r>   -16.6578     0.0000   160.0000 </r>
       <r>   -16.5555     0.0000   160.0000 </r>
       <r>   -16.4533     0.0000   160.0000 </r>
       <r>   -16.3510     0.0000   160.0000 </r>
       <r>   -16.2487     0.0000   160.0000 </r>
       <r>   -16.1464     0.0000   160.0000 </r>
       <r>   -16.0441     0.0000   160.0000 </r>
       <r>   -15.9418     0.0000   160.0000 </r>
       <r>   -15.8395     0.0000   160.0000 </r>
       <r>   -15.7372     0.0000   160.0000 </r>
       <r>   -15.6350     0.0000   160.0000 </r>
       <r>   -15.5327     0.0000   160.0000 </r>
       <r>   -15.4304     0.0000   160.0000 </r>
       <r>   -15.3281     0.0000   160.0000 </r>
       <r>   -15.2258     0.0000   160.0000 </r>
       <r>   -15.1235     0.0000   160.0000 </r>
       <r>   -15.0212     0.0000   160.0000 </r>
       <r>   -14.9189     0.0000   160.0000 </r>
       <r>   -14.8167     0.0000   160.0000 </r>
       <r>   -14.7144     0.0000   160.0000 </r>
       <r>   -14.6121     0.0000   160.0000 </r>
       <r>   -14.5098     0.0000   160.0000 </r>
       <r>   -14.4075     0.0000   160.0000 </r>
       <r>   -14.3052     0.0000   160.0000 </r>
       <r>   -14.2029     0.0000   160.0000 </r>
       <r>   -14.1007     0.0000   160.0000 </r>
       <r>   -13.9984     0.0000   160.0000 </r>
       <r>   -13.8961     0.0000   160.0000 </r>
       <r>   -13.7938     0.0002   160.0000 </r>
       <r>   -13.6915     0.4730   160.0484 </r>
       <r>   -13.5892     5.2278   160.5831 </r>
       <r>   -13.4869    11.7751   161.7876 </r>
       <r>   -13.3846     5.1052   162.3098 </r>
       <r>   -13.2824    12.7317   163.6121 </r>
       <r>   -13.1801    15.6920   165.2172 </r>
       <r>   -13.0778     2.3450   165.4570 </r>
       <r>   -12.9755    12.4132   166.7267 </r>
       <r>   -12.8732    21.8220   168.9589 </r>
       <r>   -12.7709     8.6934   169.8481 </r>
       <r>   -12.6686    13.5366   171.2327 </r>
       <r>   -12.5663     8.2509   172.0767 </r>
       <r>   -12.4641    33.5353   175.5069 </r>
       <r>   -12.3618    21.9967   177.7569 </r>
       <r>   -12.2595    19.6124   179.7630 </r>
       <r>   -12.1572    37.3032   183.5786 </r>
       <r>   -12.0549    21.4280   185.7704 </r>
       <r>   -11.9526     9.2402   186.7156 </r>
       <r>   -11.8503    25.6377   189.3380 </r>
       <r>   -11.7480     9.9411   190.3548 </r>
       <r>   -11.6458    14.3233   191.8199 </r>
       <r>   -11.5435     1.7564   191.9996 </r>
       <r>   -11.4412     0.0043   192.0000 </r>
       <r>   -11.3389     0.0000   192.0000 </r>
       <r>   -11.2366     0.0000   192.0000 </r>
       <r>   -11.1343     0.0000   192.0000 </r>
       <r>   -11.0320     0.0000   192.0000 </r>
       <r>   -10.9298     0.0000   192.0000 </r>
       <r>   -10.8275     0.0000   192.0000 </r>
       <r>   -10.7252     0.0000   192.0000 </r>
       <r>   -10.6229     0.0000   192.0000 </r>
       <r>   -10.5206     0.0000   192.0000 </r>
       <r>   -10.4183     0.0000   192.0000 </r>
       <r>   -10.3160     0.0000   192.0000 </r>
       <r>   -10.2137     0.0000   192.0000 </r>
       <r>   -10.1115     0.0000   192.0000 </r>
       <r>   -10.0092     0.0000   192.0000 </r>
       <r>    -9.9069     0.0000   192.0000 </r>
       <r>    -9.8046     0.0000   192.0000 </r>
       <r>    -9.7023     0.0000   192.0000 </r>
       <r>    -9.6000     0.0000   192.0000 </r>
       <r>    -9.4977     0.0000   192.0000 </r>
       <r>    -9.3954     0.0000   192.0000 </r>
       <r>    -9.2932     0.0000   192.0000 </r>
       <r>    -9.1909     0.0000   192.0000 </r>
       <r>    -9.0886     0.0000   192.0000 </r>
       <r>    -8.9863     0.0000   192.0000 </r>
       <r>    -8.8840     0.0000   192.0000 </r>
       <r>    -8.7817     0.0000   192.0000 </r>
       <r>    -8.6794     0.0000   192.0000 </r>
       <r>    -8.5771     0.0000   192.0000 </r>
       <r>    -8.4749     0.0000   192.0000 </r>
       <r>    -8.3726     0.0000   192.0000 </r>
       <r>    -8.2703     0.0000   192.0000 </r>
       <r>    -8.1680     0.0000   192.0000 </r>
       <r>    -8.0657     0.0000   192.0000 </r>
       <r>    -7.9634     0.0000   192.0000 </r>
       <r>    -7.8611     0.0000   192.0000 </r>
       <r>    -7.7589     0.0000   192.0000 </r>
       <r>    -7.6566     0.0000   192.0000 </r>
       <r>    -7.5543     0.0000   192.0000 </r>
       <r>    -7.4520     0.0000   192.0000 </r>
       <r>    -7.3497     0.0000   192.0000 </r>
       <r>    -7.2474     0.0000   192.0000 </r>
       <r>    -7.1451     0.0000   192.0000 </r>
       <r>    -7.0428     0.0000   192.0000 </r>
       <r>    -6.9406     0.0000   192.0000 </r>
       <r>    -6.8383     0.0212   192.0022 </r>
       <r>    -6.7360     0.6088   192.0644 </r>
       <r>    -6.6337     3.2362   192.3955 </r>
       <r>    -6.5314     5.3131   192.9389 </r>
       <r>    -6.4291     4.0288   193.3510 </r>
       <r>    -6.3268    11.6132   194.5389 </r>
       <r>    -6.2245    10.2598   195.5883 </r>
       <r>    -6.1223     9.3940   196.5492 </r>
       <r>    -6.0200    10.9840   197.6728 </r>
       <r>    -5.9177    14.9550   199.2025 </r>
       <r>    -5.8154    15.5384   200.7918 </r>
       <r>    -5.7131    17.5485   202.5868 </r>
       <r>    -5.6108    15.6345   204.1860 </r>
       <r>    -5.5085    23.4676   206.5865 </r>
       <r>    -5.4062    15.5948   208.1816 </r>
       <r>    -5.3040    16.6716   209.8869 </r>
       <r>    -5.2017    41.2113   214.1023 </r>
       <r>    -5.0994    24.1688   216.5744 </r>
       <r>    -4.9971    52.0364   221.8971 </r>
       <r>    -4.8948    27.3728   224.6970 </r>
       <r>    -4.7925     8.9392   225.6113 </r>
       <r>    -4.6902    22.1339   227.8754 </r>
       <r>    -4.5880    21.6194   230.0867 </r>
       <r>    -4.4857     6.3827   230.7396 </r>
       <r>    -4.3834    10.9204   231.8566 </r>
       <r>    -4.2811    12.3729   233.1222 </r>
       <r>    -4.1788    11.2897   234.2770 </r>
       <r>    -4.0765     4.6079   234.7483 </r>
       <r>    -3.9742     0.0184   234.7502 </r>
       <r>    -3.8719     2.8666   235.0434 </r>
       <r>    -3.7697    15.8466   236.6643 </r>
       <r>    -3.6674     8.1676   237.4998 </r>
       <r>    -3.5651     2.9742   237.8040 </r>
       <r>    -3.4628     3.1262   238.1238 </r>
       <r>    -3.3605     3.9933   238.5322 </r>
       <r>    -3.2582     6.6943   239.2170 </r>
       <r>    -3.1559     2.5172   239.4745 </r>
       <r>    -3.0536     3.4627   239.8286 </r>
       <r>    -2.9514     0.7473   239.9051 </r>
       <r>    -2.8491     0.7192   239.9787 </r>
       <r>    -2.7468     0.2079   239.9999 </r>
       <r>    -2.6445     0.0008   240.0000 </r>
       <r>    -2.5422     0.0000   240.0000 </r>
       <r>    -2.4399     0.0000   240.0000 </r>
       <r>    -2.3376     0.0000   240.0000 </r>
       <r>    -2.2353     0.0000   240.0000 </r>
       <r>    -2.1331     0.0000   240.0000 </r>
       <r>    -2.0308     0.0000   240.0000 </r>
       <r>    -1.9285     0.0000   240.0000 </r>
       <r>    -1.8262     0.0000   240.0000 </r>
       <r>    -1.7239     0.0000   240.0000 </r>
       <r>    -1.6216     0.0000   240.0000 </r>
       <r>    -1.5193     0.0000   240.0000 </r>
       <r>    -1.4171     0.0000   240.0000 </r>
       <r>    -1.3148     0.0000   240.0000 </r>
       <r>    -1.2125     0.0000   240.0000 </r>
       <r>    -1.1102     0.0000   240.0000 </r>
       <r>    -1.0079     0.0000   240.0000 </r>
       <r>    -0.9056     0.0000   240.0000 </r>
       <r>    -0.8033     0.0000   240.0000 </r>
       <r>    -0.7010     0.0000   240.0000 </r>
       <r>    -0.5988     0.0000   240.0000 </r>
       <r>    -0.4965     0.0000   240.0000 </r>
       <r>    -0.3942     0.0000   240.0000 </r>
       <r>    -0.2919     0.0548   240.0056 </r>
       <r>    -0.1896     2.5655   240.2680 </r>
       <r>    -0.0873     9.1181   241.2007 </r>
       <r>     0.0150    26.9653   243.9589 </r>
       <r>     0.1173    32.2425   247.2569 </r>
       <r>     0.2195    40.4705   251.3965 </r>
       <r>     0.3218    23.7527   253.8261 </r>
       <r>     0.4241    16.8334   255.5479 </r>
       <r>     0.5264    24.4036   258.0441 </r>
       <r>     0.6287    23.8490   260.4835 </r>
       <r>     0.7310    14.8458   262.0021 </r>
       <r>     0.8333    20.1266   264.0608 </r>
       <r>     0.9356    31.0635   267.2382 </r>
       <r>     1.0378    18.3770   269.1179 </r>
       <r>     1.1401    14.4013   270.5910 </r>
       <r>     1.2424     9.7797   271.5913 </r>
       <r>     1.3447    25.3149   274.1807 </r>
       <r>     1.4470    41.4908   278.4247 </r>
       <r>     1.5493    19.0007   280.3682 </r>
       <r>     1.6516    25.0054   282.9259 </r>
       <r>     1.7538    23.7450   285.3547 </r>
       <r>     1.8561    41.4418   289.5937 </r>
       <r>     1.9584    42.4546   293.9362 </r>
       <r>     2.0607    43.4840   298.3841 </r>
       <r>     2.1630    21.4490   300.5780 </r>
       <r>     2.2653    20.9739   302.7234 </r>
       <r>     2.3676    33.7225   306.1728 </r>
       <r>     2.4699    25.4647   308.7775 </r>
       <r>     2.5721    12.7532   310.0820 </r>
       <r>     2.6744    21.2933   312.2600 </r>
       <r>     2.7767    40.3440   316.3867 </r>
       <r>     2.8790    43.5037   320.8365 </r>
       <r>     2.9813    23.7781   323.2687 </r>
       <r>     3.0836    35.8545   326.9362 </r>
       <r>     3.1859    30.7814   330.0847 </r>
       <r>     3.2882    27.7911   332.9274 </r>
       <r>     3.3904    11.5525   334.1091 </r>
       <r>     3.4927    21.6380   336.3224 </r>
       <r>     3.5950    14.8542   337.8418 </r>
       <r>     3.6973     7.1613   338.5743 </r>
       <r>     3.7996    11.9856   339.8003 </r>
       <r>     3.9019    16.2256   341.4599 </r>
       <r>     4.0042    14.5567   342.9489 </r>
       <r>     4.1065    16.0059   344.5861 </r>
       <r>     4.2087    18.5687   346.4854 </r>
       <r>     4.3110    22.4878   348.7856 </r>
       <r>     4.4133    58.7490   354.7949 </r>
       <r>     4.5156    57.8270   360.7098 </r>
       <r>     4.6179    56.9234   366.5324 </r>
       <r>     4.7202    41.6351   370.7911 </r>
       <r>     4.8225    30.5601   373.9170 </r>
       <r>     4.9248    13.1768   375.2648 </r>
       <r>     5.0270    30.1298   378.3467 </r>
       <r>     5.1293    28.1917   381.2304 </r>
       <r>     5.2316    10.5286   382.3073 </r>
       <r>     5.3339     4.9275   382.8113 </r>
       <r>     5.4362     5.8115   383.4058 </r>
       <r>     5.5385     4.9116   383.9082 </r>
       <r>     5.6408     1.1883   384.0297 </r>
       <r>     5.7430     0.2245   384.0527 </r>
       <r>     5.8453     0.6763   384.1219 </r>
       <r>     5.9476     0.0419   384.1261 </r>
       <r>     6.0499     0.7021   384.1980 </r>
       <r>     6.1522     0.6090   384.2603 </r>
       <r>     6.2545     0.6830   384.3301 </r>
       <r>     6.3568     0.1161   384.3420 </r>
       <r>     6.4591     1.7628   384.5223 </r>
       <r>     6.5613     4.2513   384.9572 </r>
       <r>     6.6636     3.9132   385.3574 </r>
       <r>     6.7659     5.6459   385.9349 </r>
       <r>     6.8682     6.4043   386.5900 </r>
       <r>     6.9705     7.5318   387.3604 </r>
       <r>     7.0728    12.2947   388.6180 </r>
       <r>     7.1751    10.3841   389.6802 </r>
       <r>     7.2774     9.6921   390.6716 </r>
       <r>     7.3796     5.7268   391.2573 </r>
       <r>     7.4819    14.2572   392.7157 </r>
       <r>     7.5842    32.9967   396.0908 </r>
       <r>     7.6865    24.4475   398.5915 </r>
       <r>     7.7888    22.4313   400.8859 </r>
       <r>     7.8911    29.4919   403.9025 </r>
       <r>     7.9934    30.0522   406.9765 </r>
       <r>     8.0957    15.0146   408.5123 </r>
       <r>     8.1979    19.5905   410.5161 </r>
       <r>     8.3002    20.9895   412.6631 </r>
       <r>     8.4025    22.9279   415.0083 </r>
       <r>     8.5048    29.8248   418.0590 </r>
       <r>     8.6071    32.3207   421.3650 </r>
       <r>     8.7094    26.6249   424.0884 </r>
       <r>     8.8117    29.0686   427.0617 </r>
       <r>     8.9139    35.3556   430.6782 </r>
       <r>     9.0162    28.8671   433.6309 </r>
       <r>     9.1185    25.9607   436.2863 </r>
       <r>     9.2208    27.9324   439.1435 </r>
       <r>     9.3231    24.0374   441.6022 </r>
       <r>     9.4254    22.7696   443.9312 </r>
       <r>     9.5277    15.3801   445.5044 </r>
       <r>     9.6300    17.7762   447.3227 </r>
       <r>     9.7322    44.3413   451.8582 </r>
       <r>     9.8345    52.2840   457.2062 </r>
       <r>     9.9368    34.4371   460.7287 </r>
       <r>    10.0391    25.2938   463.3159 </r>
       <r>    10.1414     6.5717   463.9881 </r>
       <r>    10.2437     0.1165   464.0000 </r>
       <r>    10.3460     0.0000   464.0000 </r>
       <r>    10.4483     0.0000   464.0000 </r>
       <r>    10.5505     0.0000   464.0000 </r>
       <r>    10.6528     0.0000   464.0000 </r>
       <r>    10.7551     0.0000   464.0000 </r>
       <r>    10.8574     0.0000   464.0000 </r>
       <r>    10.9597     0.0000   464.0000 </r>
       <r>    11.0620     0.0000   464.0000 </r>
       <r>    11.1643     0.0000   464.0000 </r>
       <r>    11.2666     0.0000   464.0000 </r>
       <r>    11.3688     0.0000   464.0000 </r>
       <r>    11.4711     0.0000   464.0000 </r>
      </set>
     </set>
    </array>
   </total>
  </dos>
 </calculation>
 <structure name="finalpos" >
  <crystal>
   <varray name="basis" >
    <v>       8.07536382       0.00000000       0.00000000 </v>
    <v>       0.00000000       8.07536382       0.00000000 </v>
    <v>       0.00000000       0.00000000      12.74388286 </v>
   </varray>
   <i name="volume">    831.04772771 </i>
   <varray name="rec_basis" >
    <v>       0.12383343       0.00000000       0.00000000 </v>
    <v>       0.00000000       0.12383343       0.00000000 </v>
    <v>       0.00000000       0.00000000       0.07846902 </v>
   </varray>
  </crystal>
  <varray name="positions" >
   <v>       0.24889783       0.24889783       0.84984112 </v>
   <v>       0.75110217       0.24889783       0.84984112 </v>
   <v>       0.24889783       0.75110217       0.84984112 </v>
   <v>       0.75110217       0.75110217       0.84984112 </v>
   <v>       1.00000000       0.00000000       0.65063197 </v>
   <v>       0.50000000       0.00000000       0.65206444 </v>
   <v>       1.00000000       0.50000000       0.65206444 </v>
   <v>       0.50000000       0.50000000       0.65357185 </v>
   <v>       1.00000000       0.00000000       0.34936803 </v>
   <v>       0.50000000       0.00000000       0.34793556 </v>
   <v>       1.00000000       0.50000000       0.34793556 </v>
   <v>       0.50000000       0.50000000       0.34642815 </v>
   <v>       0.24889783       0.24889783       0.15015888 </v>
   <v>       0.75110217       0.24889783       0.15015888 </v>
   <v>       0.24889783       0.75110217       0.15015888 </v>
   <v>       0.75110217       0.75110217       0.15015888 </v>
   <v>       0.50000000       0.00000000       0.00000000 </v>
   <v>       1.00000000       0.50000000       0.00000000 </v>
   <v>       0.50000000       0.50000000       0.00000000 </v>
   <v>       0.24844894       0.24844894       0.50000000 </v>
   <v>       0.75155106       0.24844894       0.50000000 </v>
   <v>       0.24844894       0.75155106       0.50000000 </v>
   <v>       0.75155106       0.75155106       0.50000000 </v>
   <v>       1.00000000       0.24997695       0.75078922 </v>
   <v>       0.50000000       0.25010026       0.75115080 </v>
   <v>       1.00000000       0.75002305       0.75078922 </v>
   <v>       0.50000000       0.74989974       0.75115080 </v>
   <v>       0.24997695       0.00000000       0.75078922 </v>
   <v>       0.75002305       0.00000000       0.75078922 </v>
   <v>       0.25010026       0.50000000       0.75115080 </v>
   <v>       0.74989974       0.50000000       0.75115080 </v>
   <v>       0.24997695       0.00000000       0.24921078 </v>
   <v>       0.75002305       0.00000000       0.24921078 </v>
   <v>       0.25010026       0.50000000       0.24884920 </v>
   <v>       0.74989974       0.50000000       0.24884920 </v>
   <v>       1.00000000       0.24997695       0.24921078 </v>
   <v>       0.50000000       0.25010026       0.24884920 </v>
   <v>       1.00000000       0.75002305       0.24921078 </v>
   <v>       0.50000000       0.74989974       0.24884920 </v>
   <v>       1.00000000       0.00000000       0.00000000 </v>
  </varray>
 </structure>
</modeling>
