unknown system                          
           1
     8.075364    0.000000    0.000000
     0.000000    8.075364    0.000000
     0.000000    0.000000   12.743883
   Bi   Se   O    S 
    16     7    16     1
Direct configuration=     1
   0.24889765  0.24889765  0.84984082
   0.75110235  0.24889765  0.84984082
   0.24889765  0.75110235  0.84984082
   0.75110235  0.75110235  0.84984082
   0.00000000  0.00000000  0.65063101
   0.50000000  0.00000000  0.65206419
   0.00000000  0.50000000  0.65206419
   0.50000000  0.50000000  0.65357213
   0.00000000  0.00000000  0.34936899
   0.50000000  0.00000000  0.34793581
   0.00000000  0.50000000  0.34793581
   0.50000000  0.50000000  0.34642787
   0.24889765  0.24889765  0.15015918
   0.75110235  0.24889765  0.15015918
   0.24889765  0.75110235  0.15015918
   0.75110235  0.75110235  0.15015918
   0.50000000  0.00000000  0.00000000
   0.00000000  0.50000000  0.00000000
   0.50000000  0.50000000  0.00000000
   0.24844656  0.24844656  0.50000000
   0.75155344  0.24844656  0.50000000
   0.24844656  0.75155344  0.50000000
   0.75155344  0.75155344  0.50000000
   0.00000000  0.24997744  0.75078933
   0.50000000  0.25010073  0.75115017
   0.00000000  0.75002256  0.75078933
   0.50000000  0.74989927  0.75115017
   0.24997744  0.00000000  0.75078933
   0.75002256  0.00000000  0.75078933
   0.25010073  0.50000000  0.75115017
   0.74989927  0.50000000  0.75115017
   0.24997744  0.00000000  0.24921067
   0.75002256  0.00000000  0.24921067
   0.25010073  0.50000000  0.24884983
   0.74989927  0.50000000  0.24884983
   0.00000000  0.24997744  0.24921067
   0.50000000  0.25010073  0.24884983
   0.00000000  0.75002256  0.24921067
   0.50000000  0.74989927  0.24884983
   0.00000000  0.00000000  0.00000000
Direct configuration=     2
   0.24889766  0.24889766  0.84984087
   0.75110234  0.24889766  0.84984087
   0.24889766  0.75110234  0.84984087
   0.75110234  0.75110234  0.84984087
   0.00000000  0.00000000  0.65063113
   0.50000000  0.00000000  0.65206424
   0.00000000  0.50000000  0.65206424
   0.50000000  0.50000000  0.65357213
   0.00000000  0.00000000  0.34936887
   0.50000000  0.00000000  0.34793576
   1.00000000  0.50000000  0.34793576
   0.50000000  0.50000000  0.34642787
   0.24889766  0.24889766  0.15015913
   0.75110234  0.24889766  0.15015913
   0.24889766  0.75110234  0.15015913
   0.75110234  0.75110234  0.15015913
   0.50000000  0.00000000  1.00000000
   1.00000000  0.50000000  1.00000000
   0.50000000  0.50000000  1.00000000
   0.24844667  0.24844667  0.50000000
   0.75155333  0.24844667  0.50000000
   0.24844667  0.75155333  0.50000000
   0.75155333  0.75155333  0.50000000
   0.00000000  0.24997746  0.75078932
   0.50000000  0.25010069  0.75115020
   0.00000000  0.75002254  0.75078932
   0.50000000  0.74989931  0.75115020
   0.24997746  0.00000000  0.75078932
   0.75002254  0.00000000  0.75078932
   0.25010069  0.50000000  0.75115020
   0.74989931  0.50000000  0.75115020
   0.24997746  0.00000000  0.24921068
   0.75002254  0.00000000  0.24921068
   0.25010069  0.50000000  0.24884980
   0.74989931  0.50000000  0.24884980
   1.00000000  0.24997746  0.24921068
   0.50000000  0.25010069  0.24884980
   1.00000000  0.75002254  0.24921068
   0.50000000  0.74989931  0.24884980
   0.00000000  0.00000000  1.00000000
Direct configuration=     3
   0.24889766  0.24889766  0.84984088
   0.75110234  0.24889766  0.84984088
   0.24889766  0.75110234  0.84984088
   0.75110234  0.75110234  0.84984088
   0.00000000  0.00000000  0.65063115
   0.50000000  0.00000000  0.65206426
   0.00000000  0.50000000  0.65206426
   0.50000000  0.50000000  0.65357213
   0.00000000  0.00000000  0.34936885
   0.50000000  0.00000000  0.34793574
   0.00000000  0.50000000  0.34793574
   0.50000000  0.50000000  0.34642787
   0.24889766  0.24889766  0.15015912
   0.75110234  0.24889766  0.15015912
   0.24889766  0.75110234  0.15015912
   0.75110234  0.75110234  0.15015912
   0.50000000  0.00000000  0.00000000
   0.00000000  0.50000000  0.00000000
   0.50000000  0.50000000  0.00000000
   0.24844670  0.24844670  0.50000000
   0.75155330  0.24844670  0.50000000
   0.24844670  0.75155330  0.50000000
   0.75155330  0.75155330  0.50000000
   0.00000000  0.24997747  0.75078931
   0.50000000  0.25010069  0.75115021
   0.00000000  0.75002253  0.75078931
   0.50000000  0.74989931  0.75115021
   0.24997747  0.00000000  0.75078931
   0.75002253  0.00000000  0.75078931
   0.25010069  0.50000000  0.75115021
   0.74989931  0.50000000  0.75115021
   0.24997747  0.00000000  0.24921069
   0.75002253  0.00000000  0.24921069
   0.25010069  0.50000000  0.24884979
   0.74989931  0.50000000  0.24884979
   0.00000000  0.24997747  0.24921069
   0.50000000  0.25010069  0.24884979
   0.00000000  0.75002253  0.24921069
   0.50000000  0.74989931  0.24884979
   0.00000000  0.00000000  0.00000000
Direct configuration=     4
   0.24889766  0.24889766  0.84984089
   0.75110234  0.24889766  0.84984089
   0.24889766  0.75110234  0.84984089
   0.75110234  0.75110234  0.84984089
   0.00000000  0.00000000  0.65063120
   0.50000000  0.00000000  0.65206428
   0.00000000  0.50000000  0.65206428
   0.50000000  0.50000000  0.65357213
   0.00000000  0.00000000  0.34936880
   0.50000000  0.00000000  0.34793572
   1.00000000  0.50000000  0.34793572
   0.50000000  0.50000000  0.34642787
   0.24889766  0.24889766  0.15015911
   0.75110234  0.24889766  0.15015911
   0.24889766  0.75110234  0.15015911
   0.75110234  0.75110234  0.15015911
   0.50000000  0.00000000  1.00000000
   1.00000000  0.50000000  1.00000000
   0.50000000  0.50000000  1.00000000
   0.24844675  0.24844675  0.50000000
   0.75155325  0.24844675  0.50000000
   0.24844675  0.75155325  0.50000000
   0.75155325  0.75155325  0.50000000
   0.00000000  0.24997748  0.75078931
   0.50000000  0.25010067  0.75115023
   0.00000000  0.75002252  0.75078931
   0.50000000  0.74989933  0.75115023
   0.24997748  0.00000000  0.75078931
   0.75002252  0.00000000  0.75078931
   0.25010067  0.50000000  0.75115023
   0.74989933  0.50000000  0.75115023
   0.24997748  0.00000000  0.24921069
   0.75002252  0.00000000  0.24921069
   0.25010067  0.50000000  0.24884977
   0.74989933  0.50000000  0.24884977
   1.00000000  0.24997748  0.24921069
   0.50000000  0.25010067  0.24884977
   1.00000000  0.75002252  0.24921069
   0.50000000  0.74989933  0.24884977
   0.00000000  0.00000000  1.00000000
Direct configuration=     5
   0.24889766  0.24889766  0.84984093
   0.75110234  0.24889766  0.84984093
   0.24889766  0.75110234  0.84984093
   0.75110234  0.75110234  0.84984093
   0.00000000  0.00000000  0.65063130
   0.50000000  0.00000000  0.65206433
   0.00000000  0.50000000  0.65206433
   0.50000000  0.50000000  0.65357212
   0.00000000  0.00000000  0.34936870
   0.50000000  0.00000000  0.34793567
   0.00000000  0.50000000  0.34793567
   0.50000000  0.50000000  0.34642788
   0.24889766  0.24889766  0.15015907
   0.75110234  0.24889766  0.15015907
   0.24889766  0.75110234  0.15015907
   0.75110234  0.75110234  0.15015907
   0.50000000  0.00000000  0.00000000
   0.00000000  0.50000000  0.00000000
   0.50000000  0.50000000  0.00000000
   0.24844685  0.24844685  0.50000000
   0.75155315  0.24844685  0.50000000
   0.24844685  0.75155315  0.50000000
   0.75155315  0.75155315  0.50000000
   0.00000000  0.24997750  0.75078929
   0.50000000  0.25010064  0.75115026
   0.00000000  0.75002250  0.75078929
   0.50000000  0.74989936  0.75115026
   0.24997750  0.00000000  0.75078929
   0.75002250  0.00000000  0.75078929
   0.25010064  0.50000000  0.75115026
   0.74989936  0.50000000  0.75115026
   0.24997750  0.00000000  0.24921071
   0.75002250  0.00000000  0.24921071
   0.25010064  0.50000000  0.24884974
   0.74989936  0.50000000  0.24884974
   0.00000000  0.24997750  0.24921071
   0.50000000  0.25010064  0.24884974
   0.00000000  0.75002250  0.24921071
   0.50000000  0.74989936  0.24884974
   0.00000000  0.00000000  0.00000000
Direct configuration=     6
   0.24889768  0.24889768  0.84984094
   0.75110232  0.24889768  0.84984094
   0.24889768  0.75110232  0.84984094
   0.75110232  0.75110232  0.84984094
   0.00000000  0.00000000  0.65063133
   0.50000000  0.00000000  0.65206433
   0.00000000  0.50000000  0.65206433
   0.50000000  0.50000000  0.65357210
   0.00000000  0.00000000  0.34936867
   0.50000000  0.00000000  0.34793567
   0.00000000  0.50000000  0.34793567
   0.50000000  0.50000000  0.34642790
   0.24889768  0.24889768  0.15015906
   0.75110232  0.24889768  0.15015906
   0.24889768  0.75110232  0.15015906
   0.75110232  0.75110232  0.15015906
   0.50000000  0.00000000  0.00000000
   0.00000000  0.50000000  0.00000000
   0.50000000  0.50000000  0.00000000
   0.24844697  0.24844697  0.50000000
   0.75155303  0.24844697  0.50000000
   0.24844697  0.75155303  0.50000000
   0.75155303  0.75155303  0.50000000
   0.00000000  0.24997750  0.75078930
   0.50000000  0.25010062  0.75115031
   0.00000000  0.75002250  0.75078930
   0.50000000  0.74989938  0.75115031
   0.24997750  0.00000000  0.75078930
   0.75002250  0.00000000  0.75078930
   0.25010062  0.50000000  0.75115031
   0.74989938  0.50000000  0.75115031
   0.24997750  0.00000000  0.24921070
   0.75002250  0.00000000  0.24921070
   0.25010062  0.50000000  0.24884969
   0.74989938  0.50000000  0.24884969
   0.00000000  0.24997750  0.24921070
   0.50000000  0.25010062  0.24884969
   0.00000000  0.75002250  0.24921070
   0.50000000  0.74989938  0.24884969
   0.00000000  0.00000000  0.00000000
Direct configuration=     7
   0.24889773  0.24889773  0.84984097
   0.75110227  0.24889773  0.84984097
   0.24889773  0.75110227  0.84984097
   0.75110227  0.75110227  0.84984097
   0.00000000  0.00000000  0.65063141
   0.50000000  0.00000000  0.65206432
   0.00000000  0.50000000  0.65206432
   0.50000000  0.50000000  0.65357204
   0.00000000  0.00000000  0.34936859
   0.50000000  0.00000000  0.34793568
   0.00000000  0.50000000  0.34793568
   0.50000000  0.50000000  0.34642796
   0.24889773  0.24889773  0.15015903
   0.75110227  0.24889773  0.15015903
   0.24889773  0.75110227  0.15015903
   0.75110227  0.75110227  0.15015903
   0.50000000  0.00000000  0.00000000
   0.00000000  0.50000000  0.00000000
   0.50000000  0.50000000  0.00000000
   0.24844731  0.24844731  0.50000000
   0.75155269  0.24844731  0.50000000
   0.24844731  0.75155269  0.50000000
   0.75155269  0.75155269  0.50000000
   0.00000000  0.24997749  0.75078932
   0.50000000  0.25010054  0.75115045
   0.00000000  0.75002251  0.75078932
   0.50000000  0.74989946  0.75115045
   0.24997749  0.00000000  0.75078932
   0.75002251  0.00000000  0.75078932
   0.25010054  0.50000000  0.75115045
   0.74989946  0.50000000  0.75115045
   0.24997749  0.00000000  0.24921068
   0.75002251  0.00000000  0.24921068
   0.25010054  0.50000000  0.24884955
   0.74989946  0.50000000  0.24884955
   0.00000000  0.24997749  0.24921068
   0.50000000  0.25010054  0.24884955
   0.00000000  0.75002251  0.24921068
   0.50000000  0.74989946  0.24884955
   0.00000000  0.00000000  0.00000000
Direct configuration=     8
   0.24889783  0.24889783  0.84984102
   0.75110217  0.24889783  0.84984102
   0.24889783  0.75110217  0.84984102
   0.75110217  0.75110217  0.84984102
   0.00000000  0.00000000  0.65063157
   0.50000000  0.00000000  0.65206431
   0.00000000  0.50000000  0.65206431
   0.50000000  0.50000000  0.65357191
   0.00000000  0.00000000  0.34936843
   0.50000000  0.00000000  0.34793569
   0.00000000  0.50000000  0.34793569
   0.50000000  0.50000000  0.34642809
   0.24889783  0.24889783  0.15015898
   0.75110217  0.24889783  0.15015898
   0.24889783  0.75110217  0.15015898
   0.75110217  0.75110217  0.15015898
   0.50000000  0.00000000  0.00000000
   0.00000000  0.50000000  0.00000000
   0.50000000  0.50000000  0.00000000
   0.24844797  0.24844797  0.50000000
   0.75155203  0.24844797  0.50000000
   0.24844797  0.75155203  0.50000000
   0.75155203  0.75155203  0.50000000
   0.00000000  0.24997748  0.75078937
   0.50000000  0.25010039  0.75115074
   0.00000000  0.75002252  0.75078937
   0.50000000  0.74989961  0.75115074
   0.24997748  0.00000000  0.75078937
   0.75002252  0.00000000  0.75078937
   0.25010039  0.50000000  0.75115074
   0.74989961  0.50000000  0.75115074
   0.24997748  0.00000000  0.24921063
   0.75002252  0.00000000  0.24921063
   0.25010039  0.50000000  0.24884926
   0.74989961  0.50000000  0.24884926
   0.00000000  0.24997748  0.24921063
   0.50000000  0.25010039  0.24884926
   0.00000000  0.75002252  0.24921063
   0.50000000  0.74989961  0.24884926
   0.00000000  0.00000000  0.00000000
Direct configuration=     9
   0.24889780  0.24889780  0.84984100
   0.75110220  0.24889780  0.84984100
   0.24889780  0.75110220  0.84984100
   0.75110220  0.75110220  0.84984100
   0.00000000  0.00000000  0.65063153
   0.50000000  0.00000000  0.65206431
   0.00000000  0.50000000  0.65206431
   0.50000000  0.50000000  0.65357195
   0.00000000  0.00000000  0.34936847
   0.50000000  0.00000000  0.34793569
   0.00000000  0.50000000  0.34793569
   0.50000000  0.50000000  0.34642805
   0.24889780  0.24889780  0.15015900
   0.75110220  0.24889780  0.15015900
   0.24889780  0.75110220  0.15015900
   0.75110220  0.75110220  0.15015900
   0.50000000  0.00000000  0.00000000
   0.00000000  0.50000000  0.00000000
   0.50000000  0.50000000  0.00000000
   0.24844779  0.24844779  0.50000000
   0.75155221  0.24844779  0.50000000
   0.24844779  0.75155221  0.50000000
   0.75155221  0.75155221  0.50000000
   0.00000000  0.24997749  0.75078936
   0.50000000  0.25010043  0.75115066
   0.00000000  0.75002251  0.75078936
   0.50000000  0.74989957  0.75115066
   0.24997749  0.00000000  0.75078936
   0.75002251  0.00000000  0.75078936
   0.25010043  0.50000000  0.75115066
   0.74989957  0.50000000  0.75115066
   0.24997749  0.00000000  0.24921064
   0.75002251  0.00000000  0.24921064
   0.25010043  0.50000000  0.24884934
   0.74989957  0.50000000  0.24884934
   0.00000000  0.24997749  0.24921064
   0.50000000  0.25010043  0.24884934
   0.00000000  0.75002251  0.24921064
   0.50000000  0.74989957  0.24884934
   0.00000000  0.00000000  0.00000000
Direct configuration=    10
   0.24889782  0.24889782  0.84984101
   0.75110218  0.24889782  0.84984101
   0.24889782  0.75110218  0.84984101
   0.75110218  0.75110218  0.84984101
   0.00000000  0.00000000  0.65063156
   0.50000000  0.00000000  0.65206431
   0.00000000  0.50000000  0.65206431
   0.50000000  0.50000000  0.65357192
   0.00000000  0.00000000  0.34936844
   0.50000000  0.00000000  0.34793569
   0.00000000  0.50000000  0.34793569
   0.50000000  0.50000000  0.34642808
   0.24889782  0.24889782  0.15015899
   0.75110218  0.24889782  0.15015899
   0.24889782  0.75110218  0.15015899
   0.75110218  0.75110218  0.15015899
   0.50000000  0.00000000  0.00000000
   0.00000000  0.50000000  0.00000000
   0.50000000  0.50000000  0.00000000
   0.24844790  0.24844790  0.50000000
   0.75155210  0.24844790  0.50000000
   0.24844790  0.75155210  0.50000000
   0.75155210  0.75155210  0.50000000
   0.00000000  0.24997748  0.75078937
   0.50000000  0.25010041  0.75115071
   0.00000000  0.75002252  0.75078937
   0.50000000  0.74989959  0.75115071
   0.24997748  0.00000000  0.75078937
   0.75002252  0.00000000  0.75078937
   0.25010041  0.50000000  0.75115071
   0.74989959  0.50000000  0.75115071
   0.24997748  0.00000000  0.24921063
   0.75002252  0.00000000  0.24921063
   0.25010041  0.50000000  0.24884929
   0.74989959  0.50000000  0.24884929
   0.00000000  0.24997748  0.24921063
   0.50000000  0.25010041  0.24884929
   0.00000000  0.75002252  0.24921063
   0.50000000  0.74989959  0.24884929
   0.00000000  0.00000000  0.00000000
Direct configuration=    11
   0.24889781  0.24889781  0.84984101
   0.75110219  0.24889781  0.84984101
   0.24889781  0.75110219  0.84984101
   0.75110219  0.75110219  0.84984101
   0.00000000  0.00000000  0.65063154
   0.50000000  0.00000000  0.65206431
   0.00000000  0.50000000  0.65206431
   0.50000000  0.50000000  0.65357194
   0.00000000  0.00000000  0.34936846
   0.50000000  0.00000000  0.34793569
   0.00000000  0.50000000  0.34793569
   0.50000000  0.50000000  0.34642806
   0.24889781  0.24889781  0.15015899
   0.75110219  0.24889781  0.15015899
   0.24889781  0.75110219  0.15015899
   0.75110219  0.75110219  0.15015899
   0.50000000  0.00000000  0.00000000
   0.00000000  0.50000000  0.00000000
   0.50000000  0.50000000  0.00000000
   0.24844784  0.24844784  0.50000000
   0.75155216  0.24844784  0.50000000
   0.24844784  0.75155216  0.50000000
   0.75155216  0.75155216  0.50000000
   0.00000000  0.24997749  0.75078936
   0.50000000  0.25010042  0.75115069
   0.00000000  0.75002251  0.75078936
   0.50000000  0.74989958  0.75115069
   0.24997749  0.00000000  0.75078936
   0.75002251  0.00000000  0.75078936
   0.25010042  0.50000000  0.75115069
   0.74989958  0.50000000  0.75115069
   0.24997749  0.00000000  0.24921064
   0.75002251  0.00000000  0.24921064
   0.25010042  0.50000000  0.24884931
   0.74989958  0.50000000  0.24884931
   0.00000000  0.24997749  0.24921064
   0.50000000  0.25010042  0.24884931
   0.00000000  0.75002251  0.24921064
   0.50000000  0.74989958  0.24884931
   0.00000000  0.00000000  0.00000000
Direct configuration=    12
   0.24889782  0.24889782  0.84984101
   0.75110218  0.24889782  0.84984101
   0.24889782  0.75110218  0.84984101
   0.75110218  0.75110218  0.84984101
   0.00000000  0.00000000  0.65063155
   0.50000000  0.00000000  0.65206431
   0.00000000  0.50000000  0.65206431
   0.50000000  0.50000000  0.65357193
   0.00000000  0.00000000  0.34936845
   0.50000000  0.00000000  0.34793569
   0.00000000  0.50000000  0.34793569
   0.50000000  0.50000000  0.34642807
   0.24889782  0.24889782  0.15015899
   0.75110218  0.24889782  0.15015899
   0.24889782  0.75110218  0.15015899
   0.75110218  0.75110218  0.15015899
   0.50000000  0.00000000  0.00000000
   0.00000000  0.50000000  0.00000000
   0.50000000  0.50000000  0.00000000
   0.24844788  0.24844788  0.50000000
   0.75155212  0.24844788  0.50000000
   0.24844788  0.75155212  0.50000000
   0.75155212  0.75155212  0.50000000
   0.00000000  0.24997748  0.75078937
   0.50000000  0.25010041  0.75115070
   0.00000000  0.75002252  0.75078937
   0.50000000  0.74989959  0.75115070
   0.24997748  0.00000000  0.75078937
   0.75002252  0.00000000  0.75078937
   0.25010041  0.50000000  0.75115070
   0.74989959  0.50000000  0.75115070
   0.24997748  0.00000000  0.24921063
   0.75002252  0.00000000  0.24921063
   0.25010041  0.50000000  0.24884930
   0.74989959  0.50000000  0.24884930
   0.00000000  0.24997748  0.24921063
   0.50000000  0.25010041  0.24884930
   0.00000000  0.75002252  0.24921063
   0.50000000  0.74989959  0.24884930
   0.00000000  0.00000000  0.00000000
Direct configuration=    13
   0.24889783  0.24889783  0.84984103
   0.75110217  0.24889783  0.84984103
   0.24889783  0.75110217  0.84984103
   0.75110217  0.75110217  0.84984103
   0.00000000  0.00000000  0.65063162
   0.50000000  0.00000000  0.65206433
   0.00000000  0.50000000  0.65206433
   0.50000000  0.50000000  0.65357192
   0.00000000  0.00000000  0.34936838
   0.50000000  0.00000000  0.34793567
   0.00000000  0.50000000  0.34793567
   0.50000000  0.50000000  0.34642808
   0.24889783  0.24889783  0.15015897
   0.75110217  0.24889783  0.15015897
   0.24889783  0.75110217  0.15015897
   0.75110217  0.75110217  0.15015897
   0.50000000  0.00000000  0.00000000
   0.00000000  0.50000000  0.00000000
   0.50000000  0.50000000  0.00000000
   0.24844803  0.24844803  0.50000000
   0.75155197  0.24844803  0.50000000
   0.24844803  0.75155197  0.50000000
   0.75155197  0.75155197  0.50000000
   0.00000000  0.24997746  0.75078936
   0.50000000  0.25010039  0.75115075
   0.00000000  0.75002254  0.75078936
   0.50000000  0.74989961  0.75115075
   0.24997746  0.00000000  0.75078936
   0.75002254  0.00000000  0.75078936
   0.25010039  0.50000000  0.75115075
   0.74989961  0.50000000  0.75115075
   0.24997746  0.00000000  0.24921064
   0.75002254  0.00000000  0.24921064
   0.25010039  0.50000000  0.24884925
   0.74989961  0.50000000  0.24884925
   0.00000000  0.24997746  0.24921064
   0.50000000  0.25010039  0.24884925
   0.00000000  0.75002254  0.24921064
   0.50000000  0.74989961  0.24884925
   0.00000000  0.00000000  0.00000000
Direct configuration=    14
   0.24889787  0.24889787  0.84984111
   0.75110213  0.24889787  0.84984111
   0.24889787  0.75110213  0.84984111
   0.75110213  0.75110213  0.84984111
   0.00000000  0.00000000  0.65063183
   0.50000000  0.00000000  0.65206439
   0.00000000  0.50000000  0.65206439
   0.50000000  0.50000000  0.65357189
   0.00000000  0.00000000  0.34936817
   0.50000000  0.00000000  0.34793561
   0.00000000  0.50000000  0.34793561
   0.50000000  0.50000000  0.34642811
   0.24889787  0.24889787  0.15015889
   0.75110213  0.24889787  0.15015889
   0.24889787  0.75110213  0.15015889
   0.75110213  0.75110213  0.15015889
   0.50000000  0.00000000  0.00000000
   0.00000000  0.50000000  0.00000000
   0.50000000  0.50000000  0.00000000
   0.24844848  0.24844848  0.50000000
   0.75155152  0.24844848  0.50000000
   0.24844848  0.75155152  0.50000000
   0.75155152  0.75155152  0.50000000
   0.00000000  0.24997737  0.75078935
   0.50000000  0.25010031  0.75115088
   0.00000000  0.75002263  0.75078935
   0.50000000  0.74989969  0.75115088
   0.24997737  0.00000000  0.75078935
   0.75002263  0.00000000  0.75078935
   0.25010031  0.50000000  0.75115088
   0.74989969  0.50000000  0.75115088
   0.24997737  0.00000000  0.24921065
   0.75002263  0.00000000  0.24921065
   0.25010031  0.50000000  0.24884912
   0.74989969  0.50000000  0.24884912
   0.00000000  0.24997737  0.24921065
   0.50000000  0.25010031  0.24884912
   0.00000000  0.75002263  0.24921065
   0.50000000  0.74989969  0.24884912
   0.00000000  0.00000000  0.00000000
Direct configuration=    15
   0.24889786  0.24889786  0.84984110
   0.75110214  0.24889786  0.84984110
   0.24889786  0.75110214  0.84984110
   0.75110214  0.75110214  0.84984110
   0.00000000  0.00000000  0.65063183
   0.50000000  0.00000000  0.65206440
   0.00000000  0.50000000  0.65206440
   0.50000000  0.50000000  0.65357190
   0.00000000  0.00000000  0.34936817
   0.50000000  0.00000000  0.34793560
   0.00000000  0.50000000  0.34793560
   0.50000000  0.50000000  0.34642810
   0.24889786  0.24889786  0.15015890
   0.75110214  0.24889786  0.15015890
   0.24889786  0.75110214  0.15015890
   0.75110214  0.75110214  0.15015890
   0.50000000  0.00000000  0.00000000
   0.00000000  0.50000000  0.00000000
   0.50000000  0.50000000  0.00000000
   0.24844854  0.24844854  0.50000000
   0.75155146  0.24844854  0.50000000
   0.24844854  0.75155146  0.50000000
   0.75155146  0.75155146  0.50000000
   0.00000000  0.24997731  0.75078933
   0.50000000  0.25010031  0.75115087
   0.00000000  0.75002269  0.75078933
   0.50000000  0.74989969  0.75115087
   0.24997731  0.00000000  0.75078933
   0.75002269  0.00000000  0.75078933
   0.25010031  0.50000000  0.75115087
   0.74989969  0.50000000  0.75115087
   0.24997731  0.00000000  0.24921067
   0.75002269  0.00000000  0.24921067
   0.25010031  0.50000000  0.24884913
   0.74989969  0.50000000  0.24884913
   0.00000000  0.24997731  0.24921067
   0.50000000  0.25010031  0.24884913
   0.00000000  0.75002269  0.24921067
   0.50000000  0.74989969  0.24884913
   0.00000000  0.00000000  0.00000000
Direct configuration=    16
   0.24889784  0.24889784  0.84984110
   0.75110216  0.24889784  0.84984110
   0.24889784  0.75110216  0.84984110
   0.75110216  0.75110216  0.84984110
   0.00000000  0.00000000  0.65063184
   0.50000000  0.00000000  0.65206440
   0.00000000  0.50000000  0.65206440
   0.50000000  0.50000000  0.65357190
   0.00000000  0.00000000  0.34936816
   0.50000000  0.00000000  0.34793560
   0.00000000  0.50000000  0.34793560
   0.50000000  0.50000000  0.34642810
   0.24889784  0.24889784  0.15015890
   0.75110216  0.24889784  0.15015890
   0.24889784  0.75110216  0.15015890
   0.75110216  0.75110216  0.15015890
   0.50000000  0.00000000  0.00000000
   0.00000000  0.50000000  0.00000000
   0.50000000  0.50000000  0.00000000
   0.24844860  0.24844860  0.50000000
   0.75155140  0.24844860  0.50000000
   0.24844860  0.75155140  0.50000000
   0.75155140  0.75155140  0.50000000
   0.00000000  0.24997727  0.75078932
   0.50000000  0.25010030  0.75115086
   0.00000000  0.75002273  0.75078932
   0.50000000  0.74989970  0.75115086
   0.24997727  0.00000000  0.75078932
   0.75002273  0.00000000  0.75078932
   0.25010030  0.50000000  0.75115086
   0.74989970  0.50000000  0.75115086
   0.24997727  0.00000000  0.24921068
   0.75002273  0.00000000  0.24921068
   0.25010030  0.50000000  0.24884914
   0.74989970  0.50000000  0.24884914
   0.00000000  0.24997727  0.24921068
   0.50000000  0.25010030  0.24884914
   0.00000000  0.75002273  0.24921068
   0.50000000  0.74989970  0.24884914
   0.00000000  0.00000000  0.00000000
Direct configuration=    17
   0.24889781  0.24889781  0.84984109
   0.75110219  0.24889781  0.84984109
   0.24889781  0.75110219  0.84984109
   0.75110219  0.75110219  0.84984109
   0.00000000  0.00000000  0.65063184
   0.50000000  0.00000000  0.65206442
   0.00000000  0.50000000  0.65206442
   0.50000000  0.50000000  0.65357192
   0.00000000  0.00000000  0.34936816
   0.50000000  0.00000000  0.34793558
   0.00000000  0.50000000  0.34793558
   0.50000000  0.50000000  0.34642808
   0.24889781  0.24889781  0.15015891
   0.75110219  0.24889781  0.15015891
   0.24889781  0.75110219  0.15015891
   0.75110219  0.75110219  0.15015891
   0.50000000  0.00000000  0.00000000
   0.00000000  0.50000000  0.00000000
   0.50000000  0.50000000  0.00000000
   0.24844870  0.24844870  0.50000000
   0.75155130  0.24844870  0.50000000
   0.24844870  0.75155130  0.50000000
   0.75155130  0.75155130  0.50000000
   0.00000000  0.24997719  0.75078930
   0.50000000  0.25010030  0.75115085
   0.00000000  0.75002281  0.75078930
   0.50000000  0.74989970  0.75115085
   0.24997719  0.00000000  0.75078930
   0.75002281  0.00000000  0.75078930
   0.25010030  0.50000000  0.75115085
   0.74989970  0.50000000  0.75115085
   0.24997719  0.00000000  0.24921070
   0.75002281  0.00000000  0.24921070
   0.25010030  0.50000000  0.24884915
   0.74989970  0.50000000  0.24884915
   0.00000000  0.24997719  0.24921070
   0.50000000  0.25010030  0.24884915
   0.00000000  0.75002281  0.24921070
   0.50000000  0.74989970  0.24884915
   0.00000000  0.00000000  0.00000000
Direct configuration=    18
   0.24889782  0.24889782  0.84984110
   0.75110218  0.24889782  0.84984110
   0.24889782  0.75110218  0.84984110
   0.75110218  0.75110218  0.84984110
   1.00000000  0.00000000  0.65063187
   0.50000000  0.00000000  0.65206442
   1.00000000  0.50000000  0.65206442
   0.50000000  0.50000000  0.65357191
   1.00000000  0.00000000  0.34936813
   0.50000000  0.00000000  0.34793558
   1.00000000  0.50000000  0.34793558
   0.50000000  0.50000000  0.34642809
   0.24889782  0.24889782  0.15015890
   0.75110218  0.24889782  0.15015890
   0.24889782  0.75110218  0.15015890
   0.75110218  0.75110218  0.15015890
   0.50000000  0.00000000  0.00000000
   1.00000000  0.50000000  0.00000000
   0.50000000  0.50000000  0.00000000
   0.24844875  0.24844875  0.50000000
   0.75155125  0.24844875  0.50000000
   0.24844875  0.75155125  0.50000000
   0.75155125  0.75155125  0.50000000
   1.00000000  0.24997714  0.75078928
   0.50000000  0.25010029  0.75115083
   1.00000000  0.75002286  0.75078928
   0.50000000  0.74989971  0.75115083
   0.24997714  0.00000000  0.75078928
   0.75002286  0.00000000  0.75078928
   0.25010029  0.50000000  0.75115083
   0.74989971  0.50000000  0.75115083
   0.24997714  0.00000000  0.24921072
   0.75002286  0.00000000  0.24921072
   0.25010029  0.50000000  0.24884917
   0.74989971  0.50000000  0.24884917
   1.00000000  0.24997714  0.24921072
   0.50000000  0.25010029  0.24884917
   1.00000000  0.75002286  0.24921072
   0.50000000  0.74989971  0.24884917
   1.00000000  0.00000000  0.00000000
Direct configuration=    19
   0.24889782  0.24889782  0.84984110
   0.75110218  0.24889782  0.84984110
   0.24889782  0.75110218  0.84984110
   0.75110218  0.75110218  0.84984110
   0.00000000  0.00000000  0.65063189
   0.50000000  0.00000000  0.65206443
   0.00000000  0.50000000  0.65206443
   0.50000000  0.50000000  0.65357190
   0.00000000  0.00000000  0.34936811
   0.50000000  0.00000000  0.34793557
   0.00000000  0.50000000  0.34793557
   0.50000000  0.50000000  0.34642810
   0.24889782  0.24889782  0.15015890
   0.75110218  0.24889782  0.15015890
   0.24889782  0.75110218  0.15015890
   0.75110218  0.75110218  0.15015890
   0.50000000  0.00000000  0.00000000
   0.00000000  0.50000000  0.00000000
   0.50000000  0.50000000  0.00000000
   0.24844879  0.24844879  0.50000000
   0.75155121  0.24844879  0.50000000
   0.24844879  0.75155121  0.50000000
   0.75155121  0.75155121  0.50000000
   0.00000000  0.24997709  0.75078926
   0.50000000  0.25010029  0.75115082
   0.00000000  0.75002291  0.75078926
   0.50000000  0.74989971  0.75115082
   0.24997709  0.00000000  0.75078926
   0.75002291  0.00000000  0.75078926
   0.25010029  0.50000000  0.75115082
   0.74989971  0.50000000  0.75115082
   0.24997709  0.00000000  0.24921074
   0.75002291  0.00000000  0.24921074
   0.25010029  0.50000000  0.24884918
   0.74989971  0.50000000  0.24884918
   0.00000000  0.24997709  0.24921074
   0.50000000  0.25010029  0.24884918
   0.00000000  0.75002291  0.24921074
   0.50000000  0.74989971  0.24884918
   0.00000000  0.00000000  0.00000000
Direct configuration=    20
   0.24889783  0.24889783  0.84984112
   0.75110217  0.24889783  0.84984112
   0.24889783  0.75110217  0.84984112
   0.75110217  0.75110217  0.84984112
   1.00000000  0.00000000  0.65063194
   0.50000000  0.00000000  0.65206444
   1.00000000  0.50000000  0.65206444
   0.50000000  0.50000000  0.65357188
   1.00000000  0.00000000  0.34936806