  40  40   0   0
  0.2047509E+02  0.8036163E-09  0.8036163E-09  0.1268202E-08  0.5000000E-15
  1.000000000000000E-004
  CAR 
 unknown system                          
     11.69744856    -19.04756893  301      5.73825221      1.00000000
    -19.048  0.0000E+00  0.0000E+00
    -18.945  0.0000E+00  0.0000E+00
    -18.843  0.0000E+00  0.0000E+00
    -18.740  0.0000E+00  0.0000E+00
    -18.638  0.0000E+00  0.0000E+00
    -18.535  0.0000E+00  0.0000E+00
    -18.433  0.0000E+00  0.0000E+00
    -18.330  0.0000E+00  0.0000E+00
    -18.228  0.0000E+00  0.0000E+00
    -18.125  0.0000E+00  0.0000E+00
    -18.023  0.0000E+00  0.0000E+00
    -17.920  0.1409E-14  0.1444E-15
    -17.818  0.2670E-06  0.2736E-07
    -17.715  0.1961E-01  0.2009E-02
    -17.613  0.1422E+01  0.1478E+00
    -17.510  0.4628E+01  0.6221E+00
    -17.408  0.9086E+01  0.1553E+01
    -17.305  0.4558E+00  0.1600E+01
    -17.203  0.4537E-04  0.1600E+01
    -17.100  0.1983E-11  0.1600E+01
    -16.998  0.0000E+00  0.1600E+01
    -16.895  0.0000E+00  0.1600E+01
    -16.793  0.0000E+00  0.1600E+01
    -16.690  0.0000E+00  0.1600E+01
    -16.588  0.0000E+00  0.1600E+01
    -16.485  0.0000E+00  0.1600E+01
    -16.383  0.0000E+00  0.1600E+01
    -16.281  0.0000E+00  0.1600E+01
    -16.178  0.0000E+00  0.1600E+01
    -16.076  0.0000E+00  0.1600E+01
    -15.973  0.0000E+00  0.1600E+01
    -15.871  0.0000E+00  0.1600E+01
    -15.768  0.0000E+00  0.1600E+01
    -15.666  0.0000E+00  0.1600E+01
    -15.563  0.0000E+00  0.1600E+01
    -15.461  0.0000E+00  0.1600E+01
    -15.358  0.0000E+00  0.1600E+01
    -15.256  0.0000E+00  0.1600E+01
    -15.153  0.0000E+00  0.1600E+01
    -15.051  0.0000E+00  0.1600E+01
    -14.948  0.0000E+00  0.1600E+01
    -14.846  0.0000E+00  0.1600E+01
    -14.743  0.0000E+00  0.1600E+01
    -14.641  0.0000E+00  0.1600E+01
    -14.538  0.0000E+00  0.1600E+01
    -14.436  0.0000E+00  0.1600E+01
    -14.333  0.0000E+00  0.1600E+01
    -14.231  0.0000E+00  0.1600E+01
    -14.128  0.0000E+00  0.1600E+01
    -14.026  0.0000E+00  0.1600E+01
    -13.923  0.0000E+00  0.1600E+01
    -13.821  0.1670E-14  0.1600E+01
    -13.718  0.7775E-07  0.1600E+01
    -13.616  0.1262E-02  0.1600E+01
    -13.513  0.3106E-01  0.1603E+01
    -13.411  0.1065E+00  0.1614E+01
    -13.308  0.7967E-01  0.1622E+01
    -13.206  0.7047E-01  0.1630E+01
    -13.104  0.1964E+00  0.1650E+01
    -13.001  0.2924E-01  0.1653E+01
    -12.899  0.8438E-01  0.1661E+01
    -12.796  0.1827E+00  0.1680E+01
    -12.694  0.1256E+00  0.1693E+01
    -12.591  0.1575E+00  0.1709E+01
    -12.489  0.3809E-01  0.1713E+01
    -12.386  0.2545E+00  0.1739E+01
    -12.284  0.2583E+00  0.1766E+01
    -12.181  0.2188E+00  0.1788E+01
    -12.079  0.1562E+00  0.1804E+01
    -11.976  0.4724E+00  0.1852E+01
    -11.874  0.6504E-01  0.1859E+01
    -11.771  0.1418E+00  0.1874E+01
    -11.669  0.2274E+00  0.1897E+01
    -11.566  0.1135E+00  0.1909E+01
    -11.464  0.1055E+00  0.1919E+01
    -11.361  0.6174E-02  0.1920E+01
    -11.259  0.2890E-05  0.1920E+01
    -11.156  0.5927E-12  0.1920E+01
    -11.054  0.0000E+00  0.1920E+01
    -10.951  0.0000E+00  0.1920E+01
    -10.849  0.0000E+00  0.1920E+01
    -10.746  0.0000E+00  0.1920E+01
    -10.644  0.0000E+00  0.1920E+01
    -10.541  0.0000E+00  0.1920E+01
    -10.439  0.0000E+00  0.1920E+01
    -10.336  0.0000E+00  0.1920E+01
    -10.234  0.0000E+00  0.1920E+01
    -10.132  0.0000E+00  0.1920E+01
    -10.029  0.0000E+00  0.1920E+01
     -9.927  0.0000E+00  0.1920E+01
     -9.824  0.0000E+00  0.1920E+01
     -9.722  0.0000E+00  0.1920E+01
     -9.619  0.0000E+00  0.1920E+01
     -9.517  0.0000E+00  0.1920E+01
     -9.414  0.0000E+00  0.1920E+01
     -9.312  0.0000E+00  0.1920E+01
     -9.209  0.0000E+00  0.1920E+01
     -9.107  0.0000E+00  0.1920E+01
     -9.004  0.0000E+00  0.1920E+01
     -8.902  0.0000E+00  0.1920E+01
     -8.799  0.0000E+00  0.1920E+01
     -8.697  0.0000E+00  0.1920E+01
     -8.594  0.0000E+00  0.1920E+01
     -8.492  0.0000E+00  0.1920E+01
     -8.389  0.0000E+00  0.1920E+01
     -8.287  0.0000E+00  0.1920E+01
     -8.184  0.0000E+00  0.1920E+01
     -8.082  0.0000E+00  0.1920E+01
     -7.979  0.0000E+00  0.1920E+01
     -7.877  0.0000E+00  0.1920E+01
     -7.774  0.0000E+00  0.1920E+01
     -7.672  0.0000E+00  0.1920E+01
     -7.569  0.0000E+00  0.1920E+01
     -7.467  0.0000E+00  0.1920E+01
     -7.364  0.0000E+00  0.1920E+01
     -7.262  0.0000E+00  0.1920E+01
     -7.159  0.0000E+00  0.1920E+01
     -7.057  0.0000E+00  0.1920E+01
     -6.955  0.1987E-13  0.1920E+01
     -6.852  0.1868E-06  0.1920E+01
     -6.750  0.6366E-03  0.1920E+01
     -6.647  0.9205E-02  0.1921E+01
     -6.545  0.3735E-01  0.1925E+01
     -6.442  0.5015E-01  0.1930E+01
     -6.340  0.4063E-01  0.1934E+01
     -6.237  0.1174E+00  0.1946E+01
     -6.135  0.9723E-01  0.1956E+01
     -6.032  0.9034E-01  0.1965E+01
     -5.930  0.1059E+00  0.1976E+01
     -5.827  0.1438E+00  0.1991E+01
     -5.725  0.1431E+00  0.2006E+01
     -5.622  0.1728E+00  0.2023E+01
     -5.520  0.1406E+00  0.2038E+01
     -5.417  0.2145E+00  0.2060E+01
     -5.315  0.1533E+00  0.2075E+01
     -5.212  0.1357E+00  0.2089E+01
     -5.110  0.2533E+00  0.2115E+01
     -5.007  0.3890E+00  0.2155E+01
     -4.905  0.3220E+00  0.2188E+01
     -4.802  0.4660E+00  0.2236E+01
     -4.700  0.1402E+00  0.2250E+01
     -4.597  0.1122E+00  0.2262E+01
     -4.495  0.2399E+00  0.2286E+01
     -4.392  0.1658E+00  0.2303E+01
     -4.290  0.7172E-01  0.2311E+01
     -4.187  0.1081E+00  0.2322E+01
     -4.085  0.1073E+00  0.2333E+01
     -3.983  0.1175E+00  0.2345E+01
     -3.880  0.2583E-01  0.2347E+01
     -3.778  0.9462E-04  0.2348E+01
     -3.675  0.4694E-01  0.2352E+01
     -3.573  0.1518E+00  0.2368E+01
     -3.470  0.7945E-01  0.2376E+01
     -3.368  0.2170E-01  0.2378E+01
     -3.265  0.3420E-01  0.2382E+01
     -3.163  0.3813E-01  0.2386E+01
     -3.060  0.6482E-01  0.2392E+01
     -2.958  0.2414E-01  0.2395E+01
     -2.855  0.3397E-01  0.2398E+01
     -2.753  0.7256E-02  0.2399E+01
     -2.650  0.7245E-02  0.2400E+01
     -2.548  0.2585E-02  0.2400E+01
     -2.445  0.1954E-04  0.2400E+01
     -2.343  0.8260E-10  0.2400E+01
     -2.240  0.0000E+00  0.2400E+01
     -2.138  0.0000E+00  0.2400E+01
     -2.035  0.0000E+00  0.2400E+01
     -1.933  0.0000E+00  0.2400E+01
     -1.830  0.0000E+00  0.2400E+01
     -1.728  0.0000E+00  0.2400E+01
     -1.625  0.0000E+00  0.2400E+01
     -1.523  0.0000E+00  0.2400E+01
     -1.420  0.0000E+00  0.2400E+01
     -1.318  0.0000E+00  0.2400E+01
     -1.215  0.0000E+00  0.2400E+01
     -1.113  0.0000E+00  0.2400E+01
     -1.010  0.0000E+00  0.2400E+01
     -0.908  0.0000E+00  0.2400E+01
     -0.806  0.0000E+00  0.2400E+01
     -0.703  0.0000E+00  0.2400E+01
     -0.601  0.0000E+00  0.2400E+01
     -0.498  0.0000E+00  0.2400E+01
     -0.396  0.5620E-16  0.2400E+01
     -0.293  0.7027E-08  0.2400E+01
     -0.191  0.3135E-03  0.2400E+01
     -0.088  0.2048E-01  0.2402E+01
      0.014  0.7178E-01  0.2409E+01
      0.117  0.2583E+00  0.2436E+01
      0.219  0.2975E+00  0.2466E+01
      0.322  0.3983E+00  0.2507E+01
      0.424  0.2913E+00  0.2537E+01
      0.527  0.1573E+00  0.2553E+01
      0.629  0.1948E+00  0.2573E+01
      0.732  0.2912E+00  0.2603E+01
      0.834  0.1563E+00  0.2619E+01
      0.937  0.1809E+00  0.2638E+01
      1.039  0.2515E+00  0.2663E+01
      1.142  0.2536E+00  0.2689E+01
      1.244  0.1480E+00  0.2705E+01
      1.347  0.9477E-01  0.2714E+01
      1.449  0.1629E+00  0.2731E+01
      1.552  0.4768E+00  0.2780E+01
      1.654  0.1918E+00  0.2799E+01
      1.757  0.2685E+00  0.2827E+01
      1.859  0.2289E+00  0.2850E+01
      1.962  0.3587E+00  0.2887E+01
      2.064  0.3877E+00  0.2927E+01
      2.166  0.4339E+00  0.2971E+01
      2.269  0.2745E+00  0.3000E+01
      2.371  0.2137E+00  0.3021E+01
      2.474  0.2476E+00  0.3047E+01
      2.576  0.3235E+00  0.3080E+01
      2.679  0.1851E+00  0.3099E+01
      2.781  0.8492E-01  0.3108E+01
      2.884  0.3523E+00  0.3144E+01
      2.986  0.4704E+00  0.3192E+01
      3.089  0.3331E+00  0.3226E+01
      3.191  0.2832E+00  0.3255E+01
      3.294  0.2858E+00  0.3284E+01
      3.396  0.3167E+00  0.3317E+01
      3.499  0.1839E+00  0.3336E+01
      3.601  0.1675E+00  0.3353E+01
      3.704  0.2279E+00  0.3376E+01
      3.806  0.9402E-01  0.3386E+01
      3.909  0.1211E+00  0.3398E+01
      4.011  0.1553E+00  0.3414E+01
      4.114  0.1459E+00  0.3429E+01
      4.216  0.1603E+00  0.3446E+01
      4.319  0.1827E+00  0.3464E+01
      4.421  0.1745E+00  0.3482E+01
      4.524  0.5065E+00  0.3534E+01
      4.626  0.5808E+00  0.3594E+01
      4.729  0.5944E+00  0.3655E+01
      4.831  0.3992E+00  0.3695E+01
      4.934  0.3504E+00  0.3731E+01
      5.036  0.1675E+00  0.3748E+01
      5.139  0.2509E+00  0.3774E+01
      5.241  0.3319E+00  0.3808E+01
      5.343  0.1350E+00  0.3822E+01
      5.446  0.5371E-01  0.3828E+01
      5.548  0.5357E-01  0.3833E+01
      5.651  0.5422E-01  0.3839E+01
      5.753  0.1391E-01  0.3840E+01
      5.856  0.3484E-02  0.3840E+01
      5.958  0.3365E-02  0.3841E+01
      6.061  0.4909E-02  0.3841E+01
      6.163  0.3449E-03  0.3841E+01
      6.266  0.8217E-02  0.3842E+01
      6.368  0.9221E-02  0.3843E+01
      6.471  0.2584E-02  0.3843E+01
      6.573  0.5230E-02  0.3844E+01
      6.676  0.2770E-01  0.3847E+01
      6.778  0.3527E-01  0.3850E+01
      6.881  0.5334E-01  0.3856E+01
      6.983  0.5271E-01  0.3861E+01
      7.086  0.6671E-01  0.3868E+01
      7.188  0.1080E+00  0.3879E+01
      7.291  0.8210E-01  0.3888E+01
      7.393  0.1405E+00  0.3902E+01
      7.496  0.5696E-01  0.3908E+01
      7.598  0.7981E-01  0.3916E+01
      7.701  0.1523E+00  0.3932E+01
      7.803  0.3790E+00  0.3970E+01
      7.906  0.1962E+00  0.3990E+01
      8.008  0.2405E+00  0.4015E+01
      8.111  0.2923E+00  0.4045E+01
      8.213  0.2841E+00  0.4074E+01
      8.315  0.1314E+00  0.4088E+01
      8.418  0.2368E+00  0.4112E+01
      8.520  0.1863E+00  0.4131E+01
      8.623  0.2534E+00  0.4157E+01
      8.725  0.3097E+00  0.4189E+01
      8.828  0.2828E+00  0.4218E+01
      8.930  0.2461E+00  0.4243E+01
      9.033  0.3625E+00  0.4280E+01
      9.135  0.3202E+00  0.4313E+01
      9.238  0.2638E+00  0.4340E+01
      9.340  0.2373E+00  0.4364E+01
      9.443  0.2975E+00  0.4395E+01
      9.545  0.2084E+00  0.4416E+01
      9.648  0.2044E+00  0.4437E+01
      9.750  0.1886E+00  0.4456E+01
      9.853  0.1691E+00  0.4474E+01
      9.955  0.4091E+00  0.4516E+01
     10.058  0.5388E+00  0.4571E+01
     10.160  0.3364E+00  0.4605E+01
     10.263  0.2531E+00  0.4631E+01
     10.365  0.8325E-01  0.4640E+01
     10.468  0.1903E-02  0.4640E+01
     10.570  0.5368E-07  0.4640E+01
     10.673  0.4911E-15  0.4640E+01
     10.775  0.0000E+00  0.4640E+01
     10.878  0.0000E+00  0.4640E+01
     10.980  0.0000E+00  0.4640E+01
     11.083  0.0000E+00  0.4640E+01
     11.185  0.0000E+00  0.4640E+01
     11.288  0.0000E+00  0.4640E+01
     11.390  0.0000E+00  0.4640E+01
     11.492  0.0000E+00  0.4640E+01
     11.595  0.0000E+00  0.4640E+01
     11.697  0.0000E+00  0.4640E+01
