 vasp.6.4.3 19Mar24 (build Apr 09 2025 20:43:19) complex                        
  
 executed on             LinuxIFC date 2025.04.15  08:05:13
 running   36 mpi-ranks, on    1 nodes
 distrk:  each k-point on   36 cores,    1 groups
 distr:  one band on NCORE=   9 cores,    4 groups


--------------------------------------------------------------------------------------------------------


 INCAR:
   PREC = Accurate
   IBRION = 2
   NSW = 100
   NELMIN = 5
   ISIF = 2
   ENCUT = 520
   EDIFF = 1.000000e-08
   EDIFFG = -1.000000e-5
   ISMEAR = 0
   SIGMA = 0.05
   IALGO = 38
   LREAL = .FALSE.
   ADDGRID = .TRUE.
   LWAVE = .FALSE.
   LCHARG = .FALSE.
   NCORE = 9

 POTCAR:    PAW_PBE Bi_d 06Sep2000                
 POTCAR:    PAW_PBE Se 06Sep2000                  
 POTCAR:    PAW_PBE O 08Apr2002                   
 POTCAR:    PAW_PBE S 06Sep2000                   
 POTCAR:    PAW_PBE Bi_d 06Sep2000                
   SHA256 =  572e7eac3f9482ff025db24f2820381a7a3856069fa85913dc654793f618f69a Bi_d/POTCAR           
   COPYR  = (c) Copyright 06Sep2000 Georg Kresse                                                    
   COPYR  = This file is part of the software VASP. Any use, copying, and all other rights are regul
   COPYR  = If you do not have a valid VASP license, you may not use, copy or distribute this file. 
   VRHFIN =Bi:                                                                                      
   LEXCH  = PE                                                                                      
   EATOM  =  1959.2045 eV,  143.9975 Ry                                                             
                                                                                                    
   TITEL  = PAW_PBE Bi_d 06Sep2000                                                                  
   LULTRA =        F    use ultrasoft PP ?                                                          
   IUNSCR =        1    unscreen: 0-lin 1-nonlin 2-no                                               
   RPACOR =    2.200    partial core radius                                                         
   POMASS =  208.980; ZVAL   =   15.000    mass and valenz                                          
   RCORE  =    2.500    outmost cutoff radius                                                       
   RWIGS  =    3.090; RWIGS  =    1.635    wigner-seitz radius (au A)                               
   ENMAX  =  242.839; ENMIN  =  182.129 eV                                                          
   ICORE  =        3    local potential                                                             
   LCOR   =        T    correct aug charges                                                         
   LPAW   =        T    paw PP                                                                      
   EAUG   =  442.899                                                                                
   DEXC   =    0.000                                                                                
   RMAX   =    2.551    core radius for proj-oper                                                   
   RAUG   =    1.300    factor for augmentation sphere                                              
   RDEP   =    2.650    radius for radial grids                                                     
   RDEPT  =    2.039    core radius for aug-charge                                                  
                                                                                                    
   Atomic configuration                                                                             
   16 entries                                                                                       
     n  l   j            E        occ.                                                              
     1  0  0.50    -90639.6581   2.0000                                                             
     2  0  0.50    -16282.4666   2.0000                                                             
     2  1  1.50    -13922.8286   6.0000                                                             
     3  0  0.50     -3930.4763   2.0000                                                             
     3  1  1.50     -3256.7013   6.0000                                                             
     3  2  2.50     -2581.6168  10.0000                                                             
     4  0  0.50      -902.2614   2.0000                                                             
     4  1  1.50      -681.5915   6.0000                                                             
     4  2  2.50      -429.8249  10.0000                                                             
     4  3  3.50      -152.6004  14.0000                                                             
     5  0  0.50      -157.7156   2.0000                                                             
     5  1  1.50       -95.8054   6.0000                                                             
     5  2  2.50       -27.0806  10.0000                                                             
     6  0  0.50       -14.4732   2.0000                                                             
     6  1  1.50        -4.5702   3.0000                                                             
     5  3  2.50        -2.7212   0.0000                                                             
   Description                                                                                      
     l       E           TYP  RCUT    TYP  RCUT                                                     
     2    -27.0805982     23  2.500                                                                 
     2     -1.3605826     23  2.500                                                                 
     0    -14.4732271     23  2.500                                                                 
     0      6.8029130     23  2.500                                                                 
     1     -4.5701651     23  2.500                                                                 
     1     13.6058260     23  2.500                                                                 
     3     -1.3605826      7  2.500                                                                 
  local pseudopotential read in
  partial core-charges read in
  partial kinetic energy density read in
  atomic valenz-charges read in
  non local Contribution for L=           2  read in
    real space projection operators read in
  non local Contribution for L=           2  read in
    real space projection operators read in
  non local Contribution for L=           0  read in
    real space projection operators read in
  non local Contribution for L=           0  read in
    real space projection operators read in
  non local Contribution for L=           1  read in
    real space projection operators read in
  non local Contribution for L=           1  read in
    real space projection operators read in
    PAW grid and wavefunctions read in
 
   number of l-projection  operators is LMAX  =           6
   number of lm-projection operators is LMMAX =          18
 
 POTCAR:    PAW_PBE Se 06Sep2000                  
   SHA256 =  eabb916e6b4c819dc065ce039373bc328651da483898f08fb9e49c498452bf12 Se/POTCAR             
   COPYR  = (c) Copyright 06Sep2000 Georg Kresse                                                    
   COPYR  = This file is part of the software VASP. Any use, copying, and all other rights are regul
   COPYR  = If you do not have a valid VASP license, you may not use, copy or distribute this file. 
   VRHFIN =Se: s2p4                                                                                 
   LEXCH  = PE                                                                                      
   EATOM  =   257.1286 eV,   18.8984 Ry                                                             
                                                                                                    
   TITEL  = PAW_PBE Se 06Sep2000                                                                    
   LULTRA =        F    use ultrasoft PP ?                                                          
   IUNSCR =        1    unscreen: 0-lin 1-nonlin 2-no                                               
   RPACOR =    1.900    partial core radius                                                         
   POMASS =   78.960; ZVAL   =    6.000    mass and valenz                                          
   RCORE  =    2.100    outmost cutoff radius                                                       
   RWIGS  =    2.200; RWIGS  =    1.164    wigner-seitz radius (au A)                               
   ENMAX  =  211.555; ENMIN  =  158.666 eV                                                          
   ICORE  =        3    local potential                                                             
   LCOR   =        T    correct aug charges                                                         
   LPAW   =        T    paw PP                                                                      
   EAUG   =  446.842                                                                                
   DEXC   =    0.000                                                                                
   RMAX   =    2.147    core radius for proj-oper                                                   
   RAUG   =    1.300    factor for augmentation sphere                                              
   RDEP   =    2.177    radius for radial grids                                                     
   RDEPT  =    1.928    core radius for aug-charge                                                  
                                                                                                    
   Atomic configuration                                                                             
   10 entries                                                                                       
     n  l   j            E        occ.                                                              
     1  0  0.50    -12503.4787   2.0000                                                             
     2  0  0.50     -1606.9547   2.0000                                                             
     2  1  1.50     -1413.3140   6.0000                                                             
     3  0  0.50      -213.4885   2.0000                                                             
     3  1  1.50      -152.9538   6.0000                                                             
     3  2  2.50       -53.1221  10.0000                                                             
     4  0  0.50       -17.2865   2.0000                                                             
     4  1  0.50        -6.5110   4.0000                                                             
     4  2  2.50        -6.8029   0.0000                                                             
     4  3  2.50        -6.8029   0.0000                                                             
   Description                                                                                      
     l       E           TYP  RCUT    TYP  RCUT                                                     
     0    -17.2865377     23  2.100                                                                 
     0    -15.3094411     23  2.100                                                                 
     1     -6.5110275     23  2.100                                                                 
     1     -0.0695192     23  2.100                                                                 
     2     -6.8029130     23  2.100                                                                 
     3     -1.3605826      7  2.100                                                                 
  local pseudopotential read in
  partial core-charges read in
  partial kinetic energy density read in
  atomic valenz-charges read in
  non local Contribution for L=           0  read in
    real space projection operators read in
  non local Contribution for L=           0  read in
    real space projection operators read in
  non local Contribution for L=           1  read in
    real space projection operators read in
  non local Contribution for L=           1  read in
    real space projection operators read in
  non local Contribution for L=           2  read in
    real space projection operators read in
    PAW grid and wavefunctions read in
 
   number of l-projection  operators is LMAX  =           5
   number of lm-projection operators is LMMAX =          13
 
 POTCAR:    PAW_PBE O 08Apr2002                   
   SHA256 =  818f92134a0a090dccd8ba1447fa70422a3b330e708bb4f08108d8ae51209ddf O/POTCAR              
   COPYR  = (c) Copyright 08Apr2002 Georg Kresse                                                    
   COPYR  = This file is part of the software VASP. Any use, copying, and all other rights are regul
   COPYR  = If you do not have a valid VASP license, you may not use, copy or distribute this file. 
   VRHFIN =O: s2p4                                                                                  
   LEXCH  = PE                                                                                      
   EATOM  =   432.3788 eV,   31.7789 Ry                                                             
                                                                                                    
   TITEL  = PAW_PBE O 08Apr2002                                                                     
   LULTRA =        F    use ultrasoft PP ?                                                          
   IUNSCR =        1    unscreen: 0-lin 1-nonlin 2-no                                               
   RPACOR =    1.200    partial core radius                                                         
   POMASS =   16.000; ZVAL   =    6.000    mass and valenz                                          
   RCORE  =    1.520    outmost cutoff radius                                                       
   RWIGS  =    1.550; RWIGS  =    0.820    wigner-seitz radius (au A)                               
   ENMAX  =  400.000; ENMIN  =  300.000 eV                                                          
   ICORE  =        2    local potential                                                             
   LCOR   =        T    correct aug charges                                                         
   LPAW   =        T    paw PP                                                                      
   EAUG   =  605.392                                                                                
   DEXC   =    0.000                                                                                
   RMAX   =    1.553    core radius for proj-oper                                                   
   RAUG   =    1.300    factor for augmentation sphere                                              
   RDEP   =    1.550    radius for radial grids                                                     
   RDEPT  =    1.329    core radius for aug-charge                                                  
                                                                                                    
   Atomic configuration                                                                             
    4 entries                                                                                       
     n  l   j            E        occ.                                                              
     1  0  0.50      -514.6923   2.0000                                                             
     2  0  0.50       -23.9615   2.0000                                                             
     2  1  0.50        -9.0305   4.0000                                                             
     3  2  1.50        -9.5241   0.0000                                                             
   Description                                                                                      
     l       E           TYP  RCUT    TYP  RCUT                                                     
     0    -23.9615318     23  1.200                                                                 
     0     -9.5240782     23  1.200                                                                 
     1     -9.0304911     23  1.520                                                                 
     1      8.1634956     23  1.520                                                                 
     2     -9.5240782      7  1.500                                                                 
  local pseudopotential read in
  partial core-charges read in
  partial kinetic energy density read in
  kinetic energy density of atom read in
  atomic valenz-charges read in
  non local Contribution for L=           0  read in
    real space projection operators read in
  non local Contribution for L=           0  read in
    real space projection operators read in
  non local Contribution for L=           1  read in
    real space projection operators read in
  non local Contribution for L=           1  read in
    real space projection operators read in
    PAW grid and wavefunctions read in
 
   number of l-projection  operators is LMAX  =           4
   number of lm-projection operators is LMMAX =           8
 
 POTCAR:    PAW_PBE S 06Sep2000                   
   SHA256 =  0fc7481fb0695f01bdc6462160264c5c84044ae9ec85a907d398b887a2bc3132 S/POTCAR              
   COPYR  = (c) Copyright 06Sep2000 Georg Kresse                                                    
   COPYR  = This file is part of the software VASP. Any use, copying, and all other rights are regul
   COPYR  = If you do not have a valid VASP license, you may not use, copy or distribute this file. 
   VRHFIN =S : s2p4                                                                                 
   LEXCH  = PE                                                                                      
   EATOM  =   276.8230 eV,   20.3459 Ry                                                             
                                                                                                    
   TITEL  = PAW_PBE S 06Sep2000                                                                     
   LULTRA =        F    use ultrasoft PP ?                                                          
   IUNSCR =        1    unscreen: 0-lin 1-nonlin 2-no                                               
   RPACOR =    1.500    partial core radius                                                         
   POMASS =   32.066; ZVAL   =    6.000    mass and valenz                                          
   RCORE  =    1.900    outmost cutoff radius                                                       
   RWIGS  =    2.200; RWIGS  =    1.164    wigner-seitz radius (au A)                               
   ENMAX  =  258.689; ENMIN  =  194.016 eV                                                          
   ICORE  =        2    local potential                                                             
   LCOR   =        T    correct aug charges                                                         
   LPAW   =        T    paw PP                                                                      
   EAUG   =  335.092                                                                                
   DEXC   =    0.000                                                                                
   RMAX   =    1.942    core radius for proj-oper                                                   
   RAUG   =    1.300    factor for augmentation sphere                                              
   RDEP   =    1.954    radius for radial grids                                                     
   RDEPT  =    1.744    core radius for aug-charge                                                  
                                                                                                    
   Atomic configuration                                                                             
    6 entries                                                                                       
     n  l   j            E        occ.                                                              
     1  0  0.50     -2405.8406   2.0000                                                             
     2  0  0.50      -211.7007   2.0000                                                             
     2  1  1.50      -156.4958   6.0000                                                             
     3  0  0.50       -17.2562   2.0000                                                             
     3  1  0.50        -7.0085   4.0000                                                             
     3  2  1.50        -6.8029   0.0000                                                             
   Description                                                                                      
     l       E           TYP  RCUT    TYP  RCUT                                                     
     0    -17.2561641     23  1.900                                                                 
     0    -15.8743224     23  1.900                                                                 
     1     -7.0085400     23  1.900                                                                 
     1     -2.7779785     23  1.900                                                                 
     2     -6.8029130     23  1.900                                                                 
  local pseudopotential read in
  partial core-charges read in
  partial kinetic energy density read in
  atomic valenz-charges read in
  non local Contribution for L=           0  read in
    real space projection operators read in
  non local Contribution for L=           0  read in
    real space projection operators read in
  non local Contribution for L=           1  read in
    real space projection operators read in
  non local Contribution for L=           1  read in
    real space projection operators read in
    PAW grid and wavefunctions read in
 
   number of l-projection  operators is LMAX  =           4
   number of lm-projection operators is LMMAX =           8
 
 -----------------------------------------------------------------------------
|                                                                             |
|               ----> ADVICE to this user running VASP <----                  |
|                                                                             |
|     You have a (more or less) 'large supercell' and for larger cells it     |
|     might be more efficient to use real-space projection operators.         |
|     Therefore, try LREAL= Auto in the INCAR file.                           |
|     Mind: For very accurate calculation, you might also keep the            |
|     reciprocal projection scheme (i.e. LREAL=.FALSE.).                      |
|                                                                             |
 -----------------------------------------------------------------------------

  PAW_PBE Bi_d 06Sep2000                :
 energy of atom  1       EATOM=-1959.2045
 kinetic energy error for atom=    0.0040 (will be added to EATOM!!)
  PAW_PBE Se 06Sep2000                  :
 energy of atom  2       EATOM= -257.1286
 kinetic energy error for atom=    0.0007 (will be added to EATOM!!)
  PAW_PBE O 08Apr2002                   :
 energy of atom  3       EATOM= -432.3788
 kinetic energy error for atom=    0.0208 (will be added to EATOM!!)
  PAW_PBE S 06Sep2000                   :
 energy of atom  4       EATOM= -276.8230
 kinetic energy error for atom=    0.0016 (will be added to EATOM!!)
 
 
 POSCAR: generated by phonopy
  positions in direct lattice
  velocities in cartesian coordinates


 exchange-correlation table for PE
   RHO(1)=    0.500       N(1)  =     2000
   RHO(2)=  100.500       N(2)  =     4000
 


--------------------------------------------------------------------------------------------------------


 ion  position               nearest neighbor table
   1  0.249  0.249  0.851-  24 2.37  28 2.37  25 2.38  30 2.38  13 3.79   8 3.80   6 3.80   7 3.80
                             5 3.80
   2  0.751  0.249  0.851-  29 2.37  24 2.37  25 2.38  31 2.38  14 3.79   8 3.80   6 3.80   7 3.80
                             5 3.80
   3  0.249  0.751  0.851-  26 2.37  28 2.37  30 2.38  27 2.38  15 3.79   8 3.80   7 3.80   6 3.80
                             5 3.80
   4  0.751  0.751  0.851-  26 2.37  29 2.37  27 2.38  31 2.38  16 3.79   8 3.80   6 3.80   7 3.80
                             5 3.80
   5  0.000  0.000  0.650-  24 2.38  26 2.38  28 2.38  29 2.38   1 3.80   2 3.80   3 3.80   4 3.80
                             9 3.81
   6  0.500  0.000  0.651-  28 2.37  29 2.37  25 2.38  27 2.38   2 3.80   1 3.80   4 3.80   3 3.80
                            10 3.84
   7  0.000  0.500  0.651-  24 2.37  26 2.37  30 2.38  31 2.38   3 3.80   1 3.80   4 3.80   2 3.80
                            11 3.84
   8  0.500  0.500  0.652-  25 2.37  27 2.37  30 2.37  31 2.37   4 3.80   3 3.80   2 3.80   1 3.80
                            12 3.87
   9  0.000  0.000  0.350-  32 2.38  33 2.38  36 2.38  38 2.38  13 3.80  14 3.80  15 3.80  16 3.80
                             5 3.81
  10  0.500  0.000  0.349-  32 2.37  33 2.37  37 2.38  39 2.38  14 3.80  16 3.80  13 3.80  15 3.80
                             6 3.84
  11  0.000  0.500  0.349-  36 2.37  38 2.37  34 2.38  35 2.38  15 3.80  16 3.80  13 3.80  14 3.80
                             7 3.84
  12  0.500  0.500  0.348-  34 2.37  35 2.37  37 2.37  39 2.37  16 3.80  15 3.80  14 3.80  13 3.80
                             8 3.87
  13  0.249  0.249  0.149-  32 2.37  36 2.37  34 2.38  37 2.38   1 3.79  12 3.80  11 3.80  10 3.80
                             9 3.80
  14  0.751  0.249  0.149-  33 2.37  36 2.37  37 2.38  35 2.38   2 3.79  12 3.80  10 3.80  11 3.80
                             9 3.80
  15  0.249  0.751  0.149-  38 2.37  32 2.37  34 2.38  39 2.38   3 3.79  12 3.80  11 3.80  10 3.80
                             9 3.80
  16  0.751  0.751  0.149-  33 2.37  38 2.37  35 2.38  39 2.38   4 3.79  12 3.80  11 3.80  10 3.80
                             9 3.80
  17  0.500  0.000  0.000-
  18  0.000  0.500  0.000-
  19  0.500  0.500  0.000-
  20  0.249  0.249  0.500-
  21  0.751  0.249  0.500-
  22  0.249  0.751  0.500-
  23  0.751  0.751  0.500-
  24  0.000  0.250  0.751-   1 2.37   2 2.37   7 2.37   5 2.38
  25  0.500  0.250  0.751-   8 2.37   6 2.38   2 2.38   1 2.38
  26  0.000  0.750  0.751-   3 2.37   4 2.37   7 2.37   5 2.38
  27  0.500  0.750  0.751-   8 2.37   6 2.38   4 2.38   3 2.38
  28  0.250  0.000  0.751-   1 2.37   3 2.37   6 2.37   5 2.38
  29  0.750  0.000  0.751-   2 2.37   4 2.37   6 2.37   5 2.38
  30  0.250  0.500  0.751-   8 2.37   7 2.38   3 2.38   1 2.38
  31  0.750  0.500  0.751-   8 2.37   7 2.38   4 2.38   2 2.38
  32  0.250  0.000  0.249-  13 2.37  15 2.37  10 2.37   9 2.38
  33  0.750  0.000  0.249-  14 2.37  16 2.37  10 2.37   9 2.38
  34  0.250  0.500  0.249-  12 2.37  11 2.38  15 2.38  13 2.38
  35  0.750  0.500  0.249-  12 2.37  11 2.38  16 2.38  14 2.38
  36  0.000  0.250  0.249-  13 2.37  14 2.37  11 2.37   9 2.38
  37  0.500  0.250  0.249-  12 2.37  10 2.38  14 2.38  13 2.38
  38  0.000  0.750  0.249-  15 2.37  16 2.37  11 2.37   9 2.38
  39  0.500  0.750  0.249-  12 2.37  10 2.38  16 2.38  15 2.38
  40  0.000  0.000  0.000-
 
  LATTYP: Found a simple tetragonal cell.
 ALAT       =     8.0361630249
 C/A-ratio  =     1.5781187256
  
  Lattice vectors:
  
 A1 = (   8.0361630249,   0.0000000000,   0.0000000000)
 A2 = (   0.0000000000,   8.0361630249,   0.0000000000)
 A3 = (   0.0000000000,   0.0000000000,  12.6820193516)


Analysis of symmetry for initial positions (statically):
=====================================================================
 Subroutine PRICEL returns:
 Original cell was already a primitive cell.
 

 Routine SETGRP: Setting up the symmetry group for a 
 simple tetragonal supercell.


 Subroutine GETGRP returns: Found 16 space group operations
 (whereof 16 operations were pure point group operations)
 out of a pool of 16 trial point group operations.


The static configuration has the point symmetry D_4h.


Analysis of symmetry for dynamics (positions and initial velocities):
=====================================================================
 Subroutine PRICEL returns:
 Original cell was already a primitive cell.
 

 Routine SETGRP: Setting up the symmetry group for a 
 simple tetragonal supercell.


 Subroutine GETGRP returns: Found 16 space group operations
 (whereof 16 operations were pure point group operations)
 out of a pool of 16 trial point group operations.


The dynamic configuration has the point symmetry D_4h.


 Subroutine INISYM returns: Found 16 space group operations
 (whereof 16 operations are pure point group operations),
 and found     1 'primitive' translations


----------------------------------------------------------------------------------------

                                     Primitive cell                                     

  volume of cell :     819.0037

  direct lattice vectors                    reciprocal lattice vectors
     8.036163025  0.000000000  0.000000000     0.124437495  0.000000000  0.000000000
     0.000000000  8.036163025  0.000000000     0.000000000  0.124437495  0.000000000
     0.000000000  0.000000000 12.682019352     0.000000000  0.000000000  0.078851796

  length of vectors
     8.036163025  8.036163025 12.682019352     0.124437495  0.124437495  0.078851796

  position of ions in fractional coordinates (direct lattice)
     0.248979534  0.248979534  0.850574274
     0.751020466  0.248979534  0.850574274
     0.248979534  0.751020466  0.850574274
     0.751020466  0.751020466  0.850574274
     0.000000000  0.000000000  0.650198539
     0.500000000  0.000000000  0.651247841
     0.000000000  0.500000000  0.651247841
     0.500000000  0.500000000  0.652407468
     0.000000000  0.000000000  0.349801461
     0.500000000  0.000000000  0.348752159
     0.000000000  0.500000000  0.348752159
     0.500000000  0.500000000  0.347592532
     0.248979534  0.248979534  0.149425726
     0.751020466  0.248979534  0.149425726
     0.248979534  0.751020466  0.149425726
     0.751020466  0.751020466  0.149425726
     0.500000000  0.000000000  0.000000000
     0.000000000  0.500000000  0.000000000
     0.500000000  0.500000000  0.000000000
     0.249222732  0.249222732  0.500000000
     0.750777268  0.249222732  0.500000000
     0.249222732  0.750777268  0.500000000
     0.750777268  0.750777268  0.500000000
     0.000000000  0.249790648  0.750685596
     0.500000000  0.249925155  0.751201145
     0.000000000  0.750209352  0.750685596
     0.500000000  0.750074845  0.751201145
     0.249790648  0.000000000  0.750685596
     0.750209352  0.000000000  0.750685596
     0.249925155  0.500000000  0.751201145
     0.750074845  0.500000000  0.751201145
     0.249790648  0.000000000  0.249314404
     0.750209352  0.000000000  0.249314404
     0.249925155  0.500000000  0.248798855
     0.750074845  0.500000000  0.248798855
     0.000000000  0.249790648  0.249314404
     0.500000000  0.249925155  0.248798855
     0.000000000  0.750209352  0.249314404
     0.500000000  0.750074845  0.248798855
     0.000000000  0.000000000  0.000000000

  ion indices of the primitive-cell ions
   primitive index   ion index
                 1           1
                 2           2
                 3           3
                 4           4
                 5           5
                 6           6
                 7           7
                 8           8
                 9           9
                10          10
                11          11
                12          12
                13          13
                14          14
                15          15
                16          16
                17          17
                18          18
                19          19
                20          20
                21          21
                22          22
                23          23
                24          24
                25          25
                26          26
                27          27
                28          28
                29          29
                30          30
                31          31
                32          32
                33          33
                34          34
                35          35
                36          36
                37          37
                38          38
                39          39
                40          40

----------------------------------------------------------------------------------------

 
 
 KPOINTS: K-Spacing Value to Generate K-Mesh: 0.03

Automatic generation of k-mesh.
 Grid dimensions read from file:
 generate k-points for:    4    4    3

 Generating k-lattice:

  Cartesian coordinates                     Fractional coordinates (reciprocal lattice)
     0.031109374  0.000000000  0.000000000     0.250000000  0.000000000  0.000000000
     0.000000000  0.031109374  0.000000000     0.000000000  0.250000000  0.000000000
     0.000000000  0.000000000  0.026283932     0.000000000  0.000000000  0.333333333

  Length of vectors
     0.031109374  0.031109374  0.026283932

  Shift w.r.t. Gamma in fractional coordinates (k-lattice)
     0.000000000  0.000000000  0.000000000

 
 Subroutine IBZKPT returns following result:
 ===========================================
 
 Found     12 irreducible k-points:
 
 Following reciprocal coordinates:
            Coordinates               Weight
  0.000000  0.000000  0.000000      1.000000
  0.250000  0.000000  0.000000      4.000000
  0.500000  0.000000  0.000000      2.000000
  0.250000  0.250000  0.000000      4.000000
  0.500000  0.250000  0.000000      4.000000
  0.500000  0.500000  0.000000      1.000000
  0.000000  0.000000  0.333333      2.000000
  0.250000  0.000000  0.333333      8.000000
  0.500000  0.000000  0.333333      4.000000
  0.250000  0.250000  0.333333      8.000000
  0.500000  0.250000  0.333333      8.000000
  0.500000  0.500000  0.333333      2.000000
 
 Following cartesian coordinates:
            Coordinates               Weight
  0.000000  0.000000  0.000000      1.000000
  0.031887  0.000000  0.000000      4.000000
  0.063774  0.000000  0.000000      2.000000
  0.031887  0.031887  0.000000      4.000000
  0.063774  0.031887  0.000000      4.000000
  0.063774  0.063774  0.000000      1.000000
  0.000000  0.000000  0.026941      2.000000
  0.031887  0.000000  0.026941      8.000000
  0.063774  0.000000  0.026941      4.000000
  0.031887  0.031887  0.026941      8.000000
  0.063774  0.031887  0.026941      8.000000
  0.063774  0.063774  0.026941      2.000000
 


--------------------------------------------------------------------------------------------------------




 Dimension of arrays:
   k-points           NKPTS =     12   k-points in BZ     NKDIM =     12   number of bands    NBANDS=    232
   number of dos      NEDOS =    301   number of ions     NIONS =     40
   non local maximal  LDIM  =      6   non local SUM 2l+1 LMDIM =     18
   total plane-waves  NPLWV = 345600
   max r-space proj   IRMAX =      1   max aug-charges    IRDMAX= 149372
   dimension x,y,z NGX =    60 NGY =   60 NGZ =   96
   dimension x,y,z NGXF=   120 NGYF=  120 NGZF=  192
   support grid    NGXF=   240 NGYF=  240 NGZF=  384
   ions per type =              16   7  16   1
   NGX,Y,Z   is equivalent  to a cutoff of  12.41, 12.41, 12.58 a.u.
   NGXF,Y,Z  is equivalent  to a cutoff of  24.82, 24.82, 25.17 a.u.

 SYSTEM =  unknown system                          
 POSCAR =  generated by phonopy                    

 Startparameter for this run:
   NWRITE =      2    write-flag & timer
   PREC   = accura    normal or accurate (medium, high low for compatibility)
   ISTART =      0    job   : 0-new  1-cont  2-samecut
   ICHARG =      2    charge: 1-file 2-atom 10-const
   ISPIN  =      1    spin polarized calculation?
   LNONCOLLINEAR =      F non collinear calculations
   LSORBIT =      F    spin-orbit coupling
   INIWAV =      1    electr: 0-lowe 1-rand  2-diag
   LASPH  =      F    aspherical Exc in radial PAW
 Electronic Relaxation 1
   ENCUT  =  520.0 eV  38.22 Ry    6.18 a.u.  14.94 14.94 23.58*2*pi/ulx,y,z
   ENINI  =  520.0     initial cutoff
   ENAUG  =  605.4 eV  augmentation charge cutoff
   NELM   =     60;   NELMIN=  5; NELMDL= -5     # of ELM steps 
   EDIFF  = 0.1E-07   stopping-criterion for ELM
   LREAL  =      F    real-space projection
   NLSPLINE    = F    spline interpolate recip. space projectors
   LCOMPAT=      F    compatible to vasp.4.4
   GGA_COMPAT  = T    GGA compatible to vasp.4.4-vasp.4.6
   LMAXPAW     = -100 max onsite density
   LMAXMIX     =    2 max onsite mixed and CHGCAR
   VOSKOWN=      0    Vosko Wilk Nusair interpolation
   ROPT   =    0.00000   0.00000   0.00000   0.00000
 Ionic relaxation
   EDIFFG = -.1E-04   stopping-criterion for IOM
   NSW    =    100    number of steps for IOM
   NBLOCK =      1;   KBLOCK =    100    inner block; outer block 
   IBRION =      2    ionic relax: 0-MD 1-quasi-New 2-CG
   NFREE  =      1    steps in history (QN), initial steepest desc. (CG)
   ISIF   =      2    stress and relaxation
   IWAVPR =     11    prediction:  0-non 1-charg 2-wave 3-comb
   ISYM   =      2    0-nonsym 1-usesym 2-fastsym
   LCORR  =      T    Harris-Foulkes like correction to forces

   POTIM  = 0.5000    time-step for ionic-motion
   TEIN   =    0.0    initial temperature
   TEBEG  =    0.0;   TEEND  =   0.0 temperature during run
   SMASS  =  -3.00    Nose mass-parameter (am)
   estimated Nose-frequenzy (Omega)   =  0.10E-29 period in steps = 0.13E+47 mass=  -0.148E-26a.u.
   SCALEE = 1.0000    scale energy and forces
   NPACO  =    256;   APACO  = 10.0  distance and # of slots for P.C.
   PSTRESS=    0.0 pullay stress

  Mass of Ions in am
   POMASS = 208.98 78.96 16.00 32.07
  Ionic Valenz
   ZVAL   =  15.00  6.00  6.00  6.00
  Atomic Wigner-Seitz radii
   RWIGS  =  -1.00 -1.00 -1.00 -1.00
  virtual crystal weights 
   VCA    =   1.00  1.00  1.00  1.00
   NELECT =     384.0000    total number of electrons
   NUPDOWN=      -1.0000    fix difference up-down

 DOS related values:
   EMIN   =  10.00;   EMAX   =-10.00  energy-range for DOS
   EFERMI =   0.00;   METHOD = LEGACY      
   ISMEAR =     0;   SIGMA  =   0.05  broadening in eV -4-tet -1-fermi 0-gaus

 Electronic relaxation 2 (details)
   IALGO  =     38    algorithm
   LDIAG  =      T    sub-space diagonalisation (order eigenvalues)
   LSUBROT=      F    optimize rotation matrix (better conditioning)
   TURBO    =      0    0=normal 1=particle mesh
   IRESTART =      0    0=no restart 2=restart with 2 vectors
   NREBOOT  =      0    no. of reboots
   NMIN     =      0    reboot dimension
   EREF     =   0.00    reference energy to select bands
   IMIX   =      4    mixing-type and parameters
     AMIX     =   0.40;   BMIX     =  1.00
     AMIX_MAG =   1.60;   BMIX_MAG =  1.00
     AMIN     =   0.10
     WC   =   100.;   INIMIX=   1;  MIXPRE=   1;  MAXMIX= -45

 Intra band minimization:
   WEIMIN = 0.0010     energy-eigenvalue tresh-hold
   EBREAK =  0.11E-10  absolut break condition
   DEPER  =   0.30     relativ break condition  

   TIME   =   0.40     timestep for ELM

  volume/ion in A,a.u.               =      20.48       138.17
  Fermi-wavevector in a.u.,A,eV,Ry     =   1.271813  2.403378 22.007538  1.617508
  Thomas-Fermi vector in A             =   2.404726
 
 Write flags
   LWAVE        =      F    write WAVECAR
   LDOWNSAMPLE  =      F    k-point downsampling of WAVECAR
   LCHARG       =      F    write CHGCAR
   LVTOT        =      F    write LOCPOT, total local potential
   LVHAR        =      F    write LOCPOT, Hartree potential only
   WRT_POTENTIAL= false  ! write potential to hdf5 file
   LELF         =      F    write electronic localiz. function (ELF)
   LORBIT       =      0    0 simple, 1 ext, 2 COOP (PROOUT), +10 PAW based schemes


 Dipole corrections
   LMONO      =      F    monopole corrections only (constant potential shift)
   LDIPOL     =      F    correct potential (dipole corrections)
   IDIPOL     =      0    1-x, 2-y, 3-z, 4-all directions 
   EPSILON    =  1.0000000 bulk dielectric constant
   LVACPOTAV  =      F  vacuum potentials using an averaging scheme for the charge density
   VACPOTFLAT =  0.1000000 required flatness to determine vacuum potential
 Exchange correlation treatment:
   GGA     = PE    functional components
   XC_C    = 1    coefficients multiplying the functional components
   LIBXC   =     F    Libxc                    
   VOSKOWN =     0    Vosko Wilk Nusair interpolation
   LHFCALC =     F    Hartree Fock is set to
   LHFONE  =     F    Hartree Fock one center treatment
   AEXX    =    0.0000 exact exchange contribution

 Parameters of functionals:
   PE:
     No parameter
 
 Van der Waals corrections
   IVDW    =     0    specifies the selected vdW correction

 Linear response parameters
   LEPSILON=     F    determine dielectric tensor
   LRPA    =     F    only Hartree local field effects (RPA)
   LNABLA  =     F    use nabla operator in PAW spheres
   LVEL    =     F    velocity operator in full k-point grid
   CSHIFT  =0.1000    complex shift for real part using Kramers Kronig
   OMEGAMAX=  -1.0    maximum frequency
   DEG_THRESHOLD= 0.2000000E-02 threshold for treating states as degnerate
   RTIME   =   -0.100 relaxation time in fs
  (WPLASMAI=    0.000 imaginary part of plasma frequency in eV, 0.658/RTIME)
   DFIELD  = 0.0000000 0.0000000 0.0000000 field for delta impulse in time
 
  Optional k-point grid parameters
   LKPOINTS_OPT  =     F    use optional k-point grid
   KPOINTS_OPT_MODE=     1    mode for optional k-point grid
 
 Orbital magnetization related:
   ORBITALMAG=     F  switch on orbital magnetization
   LCHIMAG   =     F  perturbation theory with respect to B field
   DQ        =  0.001000  dq finite difference perturbation B field
   LLRAUG    =     F  two centre corrections for induced B field
   LBONE     =     F  B-component reconstruction in AE one-centre
   LVGVCALC  =     T  calculate vGv susceptibility
   LVGVAPPL  =     F  apply vGv susceptibility instead of pGv for G=0

 Random number generation:
   RANDOM_GENERATOR = DEFAULT
   PCG_SEED         = not used


--------------------------------------------------------------------------------------------------------


 conjugate gradient relaxation of ions
 charge density and potential will be updated during run
 non-spin polarized calculation
 Variant of blocked Davidson
 Davidson routine will perform the subspace rotation
 perform sub-space diagonalisation
    after iterative eigenvector-optimisation
 modified Broyden-mixing scheme, WC =      100.0
 initial mixing is a Kerker type mixing with AMIX =  0.4000 and BMIX =      1.0000
 Hartree-type preconditioning will be used
 using additional bands           40
 reciprocal scheme for non local part
 use partial core corrections
 calculate Harris-corrections to forces 
   (improved forces if not selfconsistent)
 use gradient corrections 
 use of overlap-Matrix (Vanderbilt PP)
 Gauss-broadening in eV      SIGMA  =   0.05


--------------------------------------------------------------------------------------------------------


  energy-cutoff  :      520.00
  volume of cell :      819.00
      direct lattice vectors                 reciprocal lattice vectors
     8.036163025  0.000000000  0.000000000     0.124437495  0.000000000  0.000000000
     0.000000000  8.036163025  0.000000000     0.000000000  0.124437495  0.000000000
     0.000000000  0.000000000 12.682019352     0.000000000  0.000000000  0.078851796

  length of vectors
     8.036163025  8.036163025 12.682019352     0.124437495  0.124437495  0.078851796


 
 k-points in units of 2pi/SCALE and weight: K-Spacing Value to Generate K-Mesh: 0.03
   0.00000000  0.00000000  0.00000000       0.021
   0.03188711  0.00000000  0.00000000       0.083
   0.06377422  0.00000000  0.00000000       0.042
   0.03188711  0.03188711  0.00000000       0.083
   0.06377422  0.03188711  0.00000000       0.083
   0.06377422  0.06377422  0.00000000       0.021
   0.00000000  0.00000000  0.02694103       0.042
   0.03188711  0.00000000  0.02694103       0.167
   0.06377422  0.00000000  0.02694103       0.083
   0.03188711  0.03188711  0.02694103       0.167
   0.06377422  0.03188711  0.02694103       0.167
   0.06377422  0.06377422  0.02694103       0.042
 
 k-points in reciprocal lattice and weights: K-Spacing Value to Generate K-Mesh: 0.03
   0.00000000  0.00000000  0.00000000       0.021
   0.25000000  0.00000000  0.00000000       0.083
   0.50000000  0.00000000  0.00000000       0.042
   0.25000000  0.25000000  0.00000000       0.083
   0.50000000  0.25000000  0.00000000       0.083
   0.50000000  0.50000000  0.00000000       0.021
   0.00000000  0.00000000  0.33333333       0.042
   0.25000000  0.00000000  0.33333333       0.167
   0.50000000  0.00000000  0.33333333       0.083
   0.25000000  0.25000000  0.33333333       0.167
   0.50000000  0.25000000  0.33333333       0.167
   0.50000000  0.50000000  0.33333333       0.042
 
 position of ions in fractional coordinates (direct lattice) 
   0.24897953  0.24897953  0.85057427
   0.75102047  0.24897953  0.85057427
   0.24897953  0.75102047  0.85057427
   0.75102047  0.75102047  0.85057427
   0.00000000  0.00000000  0.65019854
   0.50000000  0.00000000  0.65124784
   0.00000000  0.50000000  0.65124784
   0.50000000  0.50000000  0.65240747
   0.00000000  0.00000000  0.34980146
   0.50000000  0.00000000  0.34875216
   0.00000000  0.50000000  0.34875216
   0.50000000  0.50000000  0.34759253
   0.24897953  0.24897953  0.14942573
   0.75102047  0.24897953  0.14942573
   0.24897953  0.75102047  0.14942573
   0.75102047  0.75102047  0.14942573
   0.50000000  0.00000000  0.00000000
   0.00000000  0.50000000  0.00000000
   0.50000000  0.50000000  0.00000000
   0.24922273  0.24922273  0.50000000
   0.75077727  0.24922273  0.50000000
   0.24922273  0.75077727  0.50000000
   0.75077727  0.75077727  0.50000000
   0.00000000  0.24979065  0.75068560
   0.50000000  0.24992516  0.75120115
   0.00000000  0.75020935  0.75068560
   0.50000000  0.75007484  0.75120115
   0.24979065  0.00000000  0.75068560
   0.75020935  0.00000000  0.75068560
   0.24992516  0.50000000  0.75120115
   0.75007484  0.50000000  0.75120115
   0.24979065  0.00000000  0.24931440
   0.75020935  0.00000000  0.24931440
   0.24992516  0.50000000  0.24879885
   0.75007484  0.50000000  0.24879885
   0.00000000  0.24979065  0.24931440
   0.50000000  0.24992516  0.24879885
   0.00000000  0.75020935  0.24931440
   0.50000000  0.75007484  0.24879885
   0.00000000  0.00000000  0.00000000
 
 position of ions in cartesian coordinates  (Angst):
   2.00084013  2.00084013 10.78699940
   6.03532290  2.00084013 10.78699940
   2.00084013  6.03532290 10.78699940
   6.03532290  6.03532290 10.78699940
   0.00000000  0.00000000  8.24583045
   4.01808151  0.00000000  8.25913772
   0.00000000  4.01808151  8.25913772
   4.01808151  4.01808151  8.27384414
   0.00000000  0.00000000  4.43618890
   4.01808151  0.00000000  4.42288163
   0.00000000  4.01808151  4.42288163
   4.01808151  4.01808151  4.40817521
   2.00084013  2.00084013  1.89501995
   6.03532290  2.00084013  1.89501995
   2.00084013  6.03532290  1.89501995
   6.03532290  6.03532290  1.89501995
   4.01808151  0.00000000  0.00000000
   0.00000000  4.01808151  0.00000000
   4.01808151  4.01808151  0.00000000
   2.00279451  2.00279451  6.34100968
   6.03336852  2.00279451  6.34100968
   2.00279451  6.03336852  6.34100968
   6.03336852  6.03336852  6.34100968
   0.00000000  2.00735837  9.52020925
   4.01808151  2.00843929  9.52674746
   0.00000000  6.02880466  9.52020925
   4.01808151  6.02772373  9.52674746
   2.00735837  0.00000000  9.52020925
   6.02880466  0.00000000  9.52020925
   2.00843929  4.01808151  9.52674746
   6.02772373  4.01808151  9.52674746
   2.00735837  0.00000000  3.16181010
   6.02880466  0.00000000  3.16181010
   2.00843929  4.01808151  3.15527189
   6.02772373  4.01808151  3.15527189
   0.00000000  2.00735837  3.16181010
   4.01808151  2.00843929  3.15527189
   0.00000000  6.02880466  3.16181010
   4.01808151  6.02772373  3.15527189
   0.00000000  0.00000000  0.00000000
 


--------------------------------------------------------------------------------------------------------


 k-point     1 :   0.0000 0.0000 0.0000  plane waves:   21999
 k-point     2 :   0.2500 0.0000 0.0000  plane waves:   22054
 k-point     3 :   0.5000 0.0000 0.0000  plane waves:   22050
 k-point     4 :   0.2500 0.2500 0.0000  plane waves:   22097
 k-point     5 :   0.5000 0.2500 0.0000  plane waves:   22062
 k-point     6 :   0.5000 0.5000 0.0000  plane waves:   22140
 k-point     7 :   0.0000 0.0000 0.3333  plane waves:   21991
 k-point     8 :   0.2500 0.0000 0.3333  plane waves:   22036
 k-point     9 :   0.5000 0.0000 0.3333  plane waves:   22082
 k-point    10 :   0.2500 0.2500 0.3333  plane waves:   22041
 k-point    11 :   0.5000 0.2500 0.3333  plane waves:   22088
 k-point    12 :   0.5000 0.5000 0.3333  plane waves:   22040

 maximum and minimum number of plane-waves per node :      2480     2419

 maximum number of plane-waves:     22140
 maximum index in each direction: 
   IXMAX=   14   IYMAX=   14   IZMAX=   23
   IXMIN=  -15   IYMIN=  -15   IZMIN=  -23


 parallel 3D FFT for wavefunctions:
    minimum data exchange during FFTs selected (reduces bandwidth)
 parallel 3D FFT for charge:
    minimum data exchange during FFTs selected (reduces bandwidth)


 total amount of memory used by VASP MPI-rank0    98346. kBytes
=======================================================================

   base      :      30000. kBytes
   nonl-proj :      18668. kBytes
   fftplans  :      13008. kBytes
   grid      :       8308. kBytes
   one-center:         77. kBytes
   wavefun   :      28285. kBytes
 
     INWAV:  cpu time      0.0000: real time      0.0000
 Broyden mixing: mesh for mixing (old mesh)
   NGX = 29   NGY = 29   NGZ = 47
  (NGX  =120   NGY  =120   NGZ  =192)
  gives a total of  39527 points

 initial charge density was supplied:
 charge density of overlapping atoms calculated
 number of electron     384.0000000 magnetization 
 keeping initial charge density in first step


--------------------------------------------------------------------------------------------------------


 Maximum index for augmentation-charges         4862 (set IRDMAX)


--------------------------------------------------------------------------------------------------------


 First call to EWALD:  gamma=   0.189
 Maximum number of real-space cells 3x 3x 2
 Maximum number of reciprocal cells 2x 2x 4

    FEWALD:  cpu time      0.0025: real time      0.0025


--------------------------------------- Ionic step        1  -------------------------------------------




--------------------------------------- Iteration      1(   1)  ---------------------------------------


    POTLOK:  cpu time      0.1784: real time      0.1784
    SETDIJ:  cpu time      0.6237: real time      0.6240
     EDDAV:  cpu time     34.1043: real time     34.1127
       DOS:  cpu time      0.0018: real time      0.0019
    --------------------------------------------
      LOOP:  cpu time     34.9083: real time     34.9171

 eigenvalue-minimisations  :  5568
 total energy-change (2. order) : 0.5439933E+04  (-0.1765334E+05)
 number of electron     384.0000000 magnetization 
 augmentation part      384.0000000 magnetization 

 Free energy of the ion-electron system (eV)
  ---------------------------------------------------
  alpha Z        PSCENC =      1233.39627715
  Ewald energy   TEWEN  =    -28377.81960260
  -Hartree energ DENC   =    -12079.25252835
  -exchange      EXHF   =         0.00000000
  -V(xc)+E(xc)   XCENC  =      1228.24637133
  PAW double counting   =     34040.00696010   -33495.80632930
  entropy T*S    EENTRO =        -0.00117620
  eigenvalues    EBANDS =      2549.51080391
  atomic energy  EATOM  =     40341.65184589
  Solvation  Ediel_sol  =         0.00000000
  ---------------------------------------------------
  free energy    TOTEN  =      5439.93262195 eV

  energy without entropy =     5439.93379814  energy(sigma->0) =     5439.93321005


--------------------------------------------------------------------------------------------------------




--------------------------------------- Iteration      1(   2)  ---------------------------------------


     EDDAV:  cpu time     34.2061: real time     34.2153
       DOS:  cpu time      0.0020: real time      0.0021
    --------------------------------------------
      LOOP:  cpu time     34.2081: real time     34.2174

 eigenvalue-minimisations  :  5592
 total energy-change (2. order) :-0.4542544E+04  (-0.4406709E+04)
 number of electron     384.0000000 magnetization 
 augmentation part      384.0000000 magnetization 

 Free energy of the ion-electron system (eV)
  ---------------------------------------------------
  alpha Z        PSCENC =      1233.39627715
  Ewald energy   TEWEN  =    -28377.81960260
  -Hartree energ DENC   =    -12079.25252835
  -exchange      EXHF   =         0.00000000
  -V(xc)+E(xc)   XCENC  =      1228.24637133
  PAW double counting   =     34040.00696010   -33495.80632930
  entropy T*S    EENTRO =        -0.00942038
  eigenvalues    EBANDS =     -1993.02459084
  atomic energy  EATOM  =     40341.65184589
  Solvation  Ediel_sol  =         0.00000000
  ---------------------------------------------------
  free energy    TOTEN  =       897.38898301 eV

  energy without entropy =      897.39840340  energy(sigma->0) =      897.39369321


--------------------------------------------------------------------------------------------------------




--------------------------------------- Iteration      1(   3)  ---------------------------------------


     EDDAV:  cpu time     36.9788: real time     36.9857
       DOS:  cpu time      0.0013: real time      0.0015
    --------------------------------------------
      LOOP:  cpu time     36.9802: real time     36.9872

 eigenvalue-minimisations  :  6232
 total energy-change (2. order) :-0.1017079E+04  (-0.9482039E+03)
 number of electron     384.0000000 magnetization 
 augmentation part      384.0000000 magnetization 

 Free energy of the ion-electron system (eV)
  ---------------------------------------------------
  alpha Z        PSCENC =      1233.39627715
  Ewald energy   TEWEN  =    -28377.81960260
  -Hartree energ DENC   =    -12079.25252835
  -exchange      EXHF   =         0.00000000
  -V(xc)+E(xc)   XCENC  =      1228.24637133
  PAW double counting   =     34040.00696010   -33495.80632930
  entropy T*S    EENTRO =        -0.00000007
  eigenvalues    EBANDS =     -3010.11259976
  atomic energy  EATOM  =     40341.65184589
  Solvation  Ediel_sol  =         0.00000000
  ---------------------------------------------------
  free energy    TOTEN  =      -119.68960559 eV

  energy without entropy =     -119.68960552  energy(sigma->0) =     -119.68960556


--------------------------------------------------------------------------------------------------------




--------------------------------------- Iteration      1(   4)  ---------------------------------------


     EDDAV:  cpu time     38.4259: real time     38.4320
       DOS:  cpu time      0.0013: real time      0.0014
    --------------------------------------------
      LOOP:  cpu time     38.4272: real time     38.4333

 eigenvalue-minimisations  :  6568
 total energy-change (2. order) :-0.1183034E+03  (-0.1147202E+03)
 number of electron     384.0000000 magnetization 
 augmentation part      384.0000000 magnetization 

 Free energy of the ion-electron system (eV)
  ---------------------------------------------------
  alpha Z        PSCENC =      1233.39627715
  Ewald energy   TEWEN  =    -28377.81960260
  -Hartree energ DENC   =    -12079.25252835
  -exchange      EXHF   =         0.00000000
  -V(xc)+E(xc)   XCENC  =      1228.24637133
  PAW double counting   =     34040.00696010   -33495.80632930
  entropy T*S    EENTRO =        -0.00000000
  eigenvalues    EBANDS =     -3128.41595132
  atomic energy  EATOM  =     40341.65184589
  Solvation  Ediel_sol  =         0.00000000
  ---------------------------------------------------
  free energy    TOTEN  =      -237.99295708 eV

  energy without entropy =     -237.99295708  energy(sigma->0) =     -237.99295708


--------------------------------------------------------------------------------------------------------




--------------------------------------- Iteration      1(   5)  ---------------------------------------


     EDDAV:  cpu time     39.5585: real time     39.5876
       DOS:  cpu time      0.0021: real time      0.0022
    CHARGE:  cpu time      1.2053: real time      1.2061
    MIXING:  cpu time      0.0059: real time      0.0059
    --------------------------------------------
      LOOP:  cpu time     40.7718: real time     40.8017

 eigenvalue-minimisations  :  6832
 total energy-change (2. order) :-0.5661521E+01  (-0.5591068E+01)
 number of electron     384.0000007 magnetization 
 augmentation part       98.6107197 magnetization 

 Broyden mixing:
  rms(total) = 0.34392E+01    rms(broyden)= 0.34384E+01
  rms(prec ) = 0.43777E+01
  weight for this iteration     100.00

 Free energy of the ion-electron system (eV)
  ---------------------------------------------------
  alpha Z        PSCENC =      1233.39627715
  Ewald energy   TEWEN  =    -28377.81960260
  -Hartree energ DENC   =    -12079.25252835
  -exchange      EXHF   =         0.00000000
  -V(xc)+E(xc)   XCENC  =      1228.24637133
  PAW double counting   =     34040.00696010   -33495.80632930
  entropy T*S    EENTRO =        -0.00000000
  eigenvalues    EBANDS =     -3134.07747222
  atomic energy  EATOM  =     40341.65184589
  Solvation  Ediel_sol  =         0.00000000
  ---------------------------------------------------
  free energy    TOTEN  =      -243.65447798 eV

  energy without entropy =     -243.65447798  energy(sigma->0) =     -243.65447798


--------------------------------------------------------------------------------------------------------




--------------------------------------- Iteration      1(   6)  ---------------------------------------


    POTLOK:  cpu time      0.1760: real time      0.1761
    SETDIJ:  cpu time      0.6259: real time      0.6259
     EDDAV:  cpu time     42.5516: real time     42.5704
       DOS:  cpu time      0.0017: real time      0.0018
    CHARGE:  cpu time      1.2191: real time      1.2203
    MIXING:  cpu time      0.0078: real time      0.0078
    --------------------------------------------
      LOOP:  cpu time     44.5820: real time     44.6024

 eigenvalue-minimisations  :  7512
 total energy-change (2. order) : 0.3504213E+02  (-0.1574884E+02)
 number of electron     384.0000007 magnetization 
 augmentation part       94.9942863 magnetization 

 Broyden mixing:
  rms(total) = 0.14713E+01    rms(broyden)= 0.14693E+01
  rms(prec ) = 0.17528E+01
  weight for this iteration     100.00

 eigenvalues of (default mixing * dielectric matrix)
  average eigenvalue GAMMA=   0.7360
  0.7360

 Free energy of the ion-electron system (eV)
  ---------------------------------------------------
  alpha Z        PSCENC =      1233.39627715
  Ewald energy   TEWEN  =    -28377.81960260
  -Hartree energ DENC   =    -12320.86656049
  -exchange      EXHF   =         0.00000000
  -V(xc)+E(xc)   XCENC  =      1248.35858156
  PAW double counting   =     34482.97390791   -33892.11950651
  entropy T*S    EENTRO =        -0.00000000
  eigenvalues    EBANDS =     -2924.18728778
  atomic energy  EATOM  =     40341.65184589
  Solvation  Ediel_sol  =         0.00000000
  ---------------------------------------------------
  free energy    TOTEN  =      -208.61234486 eV

  energy without entropy =     -208.61234486  energy(sigma->0) =     -208.61234486


--------------------------------------------------------------------------------------------------------




--------------------------------------- Iteration      1(   7)  ---------------------------------------


    POTLOK:  cpu time      0.1743: real time      0.1744
    SETDIJ:  cpu time      0.6243: real time      0.6247
     EDDAV:  cpu time     36.8246: real time     36.8420
       DOS:  cpu time      0.0026: real time      0.0027
    CHARGE:  cpu time      1.2221: real time      1.2241
    MIXING:  cpu time      0.0061: real time      0.0060
    --------------------------------------------
      LOOP:  cpu time     38.8540: real time     38.8740

 eigenvalue-minimisations  :  6192
 total energy-change (2. order) : 0.7539300E+00  (-0.2908467E+01)
 number of electron     384.0000007 magnetization 
 augmentation part       95.0202990 magnetization 

 Broyden mixing:
  rms(total) = 0.79588E+00    rms(broyden)= 0.79588E+00
  rms(prec ) = 0.87099E+00
  weight for this iteration     100.00

 eigenvalues of (default mixing * dielectric matrix)
  average eigenvalue GAMMA=   1.1337
  0.9876  1.2798

 Free energy of the ion-electron system (eV)
  ---------------------------------------------------
  alpha Z        PSCENC =      1233.39627715
  Ewald energy   TEWEN  =    -28377.81960260
  -Hartree energ DENC   =    -12220.15715260
  -exchange      EXHF   =         0.00000000
  -V(xc)+E(xc)   XCENC  =      1244.23234201
  PAW double counting   =     35092.88376680   -34494.94137097
  entropy T*S    EENTRO =        -0.00010860
  eigenvalues    EBANDS =     -3027.10441191
  atomic energy  EATOM  =     40341.65184589
  Solvation  Ediel_sol  =         0.00000000
  ---------------------------------------------------
  free energy    TOTEN  =      -207.85841481 eV

  energy without entropy =     -207.85830622  energy(sigma->0) =     -207.85836052


--------------------------------------------------------------------------------------------------------




--------------------------------------- Iteration      1(   8)  ---------------------------------------


    POTLOK:  cpu time      0.1772: real time      0.1773
    SETDIJ:  cpu time      0.6240: real time      0.6240
     EDDAV:  cpu time     42.8151: real time     42.8383
       DOS:  cpu time      0.0022: real time      0.0023
    CHARGE:  cpu time      1.2214: real time      1.2219
    MIXING:  cpu time      0.0065: real time      0.0065
    --------------------------------------------
      LOOP:  cpu time     44.8464: real time     44.8702

 eigenvalue-minimisations  :  7576
 total energy-change (2. order) :-0.1572564E+00  (-0.5861882E+00)
 number of electron     384.0000007 magnetization 
 augmentation part       95.3391816 magnetization 

 Broyden mixing:
  rms(total) = 0.33550E+00    rms(broyden)= 0.33530E+00
  rms(prec ) = 0.39528E+00
  weight for this iteration     100.00

 eigenvalues of (default mixing * dielectric matrix)
  average eigenvalue GAMMA=   1.2885
  2.1592  0.8532  0.8532

 Free energy of the ion-electron system (eV)
  ---------------------------------------------------
  alpha Z        PSCENC =      1233.39627715
  Ewald energy   TEWEN  =    -28377.81960260
  -Hartree energ DENC   =    -12207.86242757
  -exchange      EXHF   =         0.00000000
  -V(xc)+E(xc)   XCENC  =      1243.37794741
  PAW double counting   =     35397.18675971   -34792.57595028
  entropy T*S    EENTRO =        -0.00087845
  eigenvalues    EBANDS =     -3045.36964244
  atomic energy  EATOM  =     40341.65184589
  Solvation  Ediel_sol  =         0.00000000
  ---------------------------------------------------
  free energy    TOTEN  =      -208.01567117 eV

  energy without entropy =     -208.01479271  energy(sigma->0) =     -208.01523194


--------------------------------------------------------------------------------------------------------




--------------------------------------- Iteration      1(   9)  ---------------------------------------


    POTLOK:  cpu time      0.1766: real time      0.1767
    SETDIJ:  cpu time      0.6267: real time      0.6270
     EDDAV:  cpu time     41.9596: real time     41.9796
       DOS:  cpu time      0.0019: real time      0.0021
    CHARGE:  cpu time      1.2217: real time      1.2224
    MIXING:  cpu time      0.0065: real time      0.0065
    --------------------------------------------
      LOOP:  cpu time     43.9930: real time     44.0142

 eigenvalue-minimisations  :  7376
 total energy-change (2. order) : 0.5516189E-01  (-0.6076811E-01)
 number of electron     384.0000007 magnetization 
 augmentation part       95.0032071 magnetization 

 Broyden mixing:
  rms(total) = 0.15634E+00    rms(broyden)= 0.15632E+00
  rms(prec ) = 0.18867E+00
  weight for this iteration     100.00

 eigenvalues of (default mixing * dielectric matrix)
  average eigenvalue GAMMA=   1.2920
  2.4538  0.8240  0.8240  1.0664

 Free energy of the ion-electron system (eV)
  ---------------------------------------------------
  alpha Z        PSCENC =      1233.39627715
  Ewald energy   TEWEN  =    -28377.81960260
  -Hartree energ DENC   =    -12231.54900450
  -exchange      EXHF   =         0.00000000
  -V(xc)+E(xc)   XCENC  =      1244.98213843
  PAW double counting   =     35715.28480544   -35105.04446154
  entropy T*S    EENTRO =        -0.00011362
  eigenvalues    EBANDS =     -3028.86239394
  atomic energy  EATOM  =     40341.65184589
  Solvation  Ediel_sol  =         0.00000000
  ---------------------------------------------------
  free energy    TOTEN  =      -207.96050927 eV

  energy without entropy =     -207.96039566  energy(sigma->0) =     -207.96045246


--------------------------------------------------------------------------------------------------------




--------------------------------------- Iteration      1(  10)  ---------------------------------------


    POTLOK:  cpu time      0.1751: real time      0.1753
    SETDIJ:  cpu time      0.6242: real time      0.6244
     EDDAV:  cpu time     40.8109: real time     40.8104
       DOS:  cpu time      0.0020: real time      0.0021
    CHARGE:  cpu time      1.2212: real time      1.2217
    MIXING:  cpu time      0.0070: real time      0.0070
    --------------------------------------------
      LOOP:  cpu time     42.8404: real time     42.8409

 eigenvalue-minimisations  :  7104
 total energy-change (2. order) : 0.1715838E-01  (-0.2043514E-01)
 number of electron     384.0000007 magnetization 
 augmentation part       95.0176429 magnetization 

 Broyden mixing:
  rms(total) = 0.43026E-01    rms(broyden)= 0.42994E-01
  rms(prec ) = 0.44862E-01
  weight for this iteration     100.00

 eigenvalues of (default mixing * dielectric matrix)
  average eigenvalue GAMMA=   1.1495
  2.3937  0.8239  0.8239  0.9669  0.7391

 Free energy of the ion-electron system (eV)
  ---------------------------------------------------
  alpha Z        PSCENC =      1233.39627715
  Ewald energy   TEWEN  =    -28377.81960260
  -Hartree energ DENC   =    -12222.26882202
  -exchange      EXHF   =         0.00000000
  -V(xc)+E(xc)   XCENC  =      1244.63578561
  PAW double counting   =     35806.38731472   -35195.57588396
  entropy T*S    EENTRO =        -0.00039022
  eigenvalues    EBANDS =     -3038.34987547
  atomic energy  EATOM  =     40341.65184589
  Solvation  Ediel_sol  =         0.00000000
  ---------------------------------------------------
  free energy    TOTEN  =      -207.94335089 eV

  energy without entropy =     -207.94296067  energy(sigma->0) =     -207.94315578


--------------------------------------------------------------------------------------------------------




--------------------------------------- Iteration      1(  11)  ---------------------------------------


    POTLOK:  cpu time      0.1751: real time      0.1751
    SETDIJ:  cpu time      0.6248: real time      0.6251
     EDDAV:  cpu time     42.2027: real time     42.2033
       DOS:  cpu time      0.0015: real time      0.0016
    CHARGE:  cpu time      1.2222: real time      1.2224
    MIXING:  cpu time      0.0062: real time      0.0062
    --------------------------------------------
      LOOP:  cpu time     44.2325: real time     44.2337

 eigenvalue-minimisations  :  7424
 total energy-change (2. order) :-0.2459553E-02  (-0.2347488E-02)
 number of electron     384.0000007 magnetization 
 augmentation part       95.0217813 magnetization 

 Broyden mixing:
  rms(total) = 0.35422E-01    rms(broyden)= 0.35418E-01
  rms(prec ) = 0.37718E-01
  weight for this iteration     100.00

 eigenvalues of (default mixing * dielectric matrix)
  average eigenvalue GAMMA=   1.3443
  2.1470  1.5648  1.5648  0.8241  0.8241  1.1408

 Free energy of the ion-electron system (eV)
  ---------------------------------------------------
  alpha Z        PSCENC =      1233.39627715
  Ewald energy   TEWEN  =    -28377.81960260
  -Hartree energ DENC   =    -12222.37703967
  -exchange      EXHF   =         0.00000000
  -V(xc)+E(xc)   XCENC  =      1244.65659133
  PAW double counting   =     35781.98121664   -35171.66243258
  entropy T*S    EENTRO =        -0.00037981
  eigenvalues    EBANDS =     -3037.77228681
  atomic energy  EATOM  =     40341.65184589
  Solvation  Ediel_sol  =         0.00000000
  ---------------------------------------------------
  free energy    TOTEN  =      -207.94581044 eV

  energy without entropy =     -207.94543064  energy(sigma->0) =     -207.94562054


--------------------------------------------------------------------------------------------------------




--------------------------------------- Iteration      1(  12)  ---------------------------------------


    POTLOK:  cpu time      0.1755: real time      0.1756
    SETDIJ:  cpu time      0.6269: real time      0.6269
     EDDAV:  cpu time     42.4598: real time     42.4599
       DOS:  cpu time      0.0017: real time      0.0018
    CHARGE:  cpu time      1.2230: real time      1.2233
    MIXING:  cpu time      0.0062: real time      0.0062
    --------------------------------------------
      LOOP:  cpu time     44.4932: real time     44.4938

 eigenvalue-minimisations  :  7488
 total energy-change (2. order) :-0.1346877E-02  (-0.8075856E-03)
 number of electron     384.0000007 magnetization 
 augmentation part       94.9902816 magnetization 

 Broyden mixing:
  rms(total) = 0.16912E-01    rms(broyden)= 0.16907E-01
  rms(prec ) = 0.19933E-01
  weight for this iteration     100.00

 eigenvalues of (default mixing * dielectric matrix)
  average eigenvalue GAMMA=   1.3828
  2.4795  2.4795  0.8060  0.8060  1.0877  1.0877  0.9332

 Free energy of the ion-electron system (eV)
  ---------------------------------------------------
  alpha Z        PSCENC =      1233.39627715
  Ewald energy   TEWEN  =    -28377.81960260
  -Hartree energ DENC   =    -12223.27299486
  -exchange      EXHF   =         0.00000000
  -V(xc)+E(xc)   XCENC  =      1244.76217362
  PAW double counting   =     35752.89761812   -35143.46217877
  entropy T*S    EENTRO =        -0.00034809
  eigenvalues    EBANDS =     -3036.09994780
  atomic energy  EATOM  =     40341.65184589
  Solvation  Ediel_sol  =         0.00000000
  ---------------------------------------------------
  free energy    TOTEN  =      -207.94715732 eV

  energy without entropy =     -207.94680924  energy(sigma->0) =     -207.94698328


--------------------------------------------------------------------------------------------------------




--------------------------------------- Iteration      1(  13)  ---------------------------------------


    POTLOK:  cpu time      0.1764: real time      0.1765
    SETDIJ:  cpu time      0.6265: real time      0.6264
     EDDAV:  cpu time     37.9831: real time     37.9835
       DOS:  cpu time      0.0019: real time      0.0021
    CHARGE:  cpu time      1.2231: real time      1.2232
    MIXING:  cpu time      0.0064: real time      0.0064
    --------------------------------------------
      LOOP:  cpu time     40.0174: real time     40.0181

 eigenvalue-minimisations  :  6456
 total energy-change (2. order) :-0.1374913E-04  (-0.6712982E-04)
 number of electron     384.0000007 magnetization 
 augmentation part       94.9887001 magnetization 

 Broyden mixing:
  rms(total) = 0.10548E-01    rms(broyden)= 0.10548E-01
  rms(prec ) = 0.12151E-01
  weight for this iteration     100.00

 eigenvalues of (default mixing * dielectric matrix)
  average eigenvalue GAMMA=   1.3511
  2.7639  2.3943  1.0565  1.0565  0.8272  0.8272  0.9415  0.9415

 Free energy of the ion-electron system (eV)
  ---------------------------------------------------
  alpha Z        PSCENC =      1233.39627715
  Ewald energy   TEWEN  =    -28377.81960260
  -Hartree energ DENC   =    -12222.81463819
  -exchange      EXHF   =         0.00000000
  -V(xc)+E(xc)   XCENC  =      1244.75228767
  PAW double counting   =     35741.07116223   -35131.97510598
  entropy T*S    EENTRO =        -0.00034627
  eigenvalues    EBANDS =     -3036.20905099
  atomic energy  EATOM  =     40341.65184589
  Solvation  Ediel_sol  =         0.00000000
  ---------------------------------------------------
  free energy    TOTEN  =      -207.94717107 eV

  energy without entropy =     -207.94682480  energy(sigma->0) =     -207.94699794


--------------------------------------------------------------------------------------------------------




--------------------------------------- Iteration      1(  14)  ---------------------------------------


    POTLOK:  cpu time      0.1771: real time      0.1772
    SETDIJ:  cpu time      0.6300: real time      0.6300
     EDDAV:  cpu time     39.4736: real time     39.4738
       DOS:  cpu time      0.0021: real time      0.0023
    CHARGE:  cpu time      1.2229: real time      1.2231
    MIXING:  cpu time      0.0064: real time      0.0064
    --------------------------------------------
      LOOP:  cpu time     41.5121: real time     41.5127

 eigenvalue-minimisations  :  6800
 total energy-change (2. order) : 0.8549981E-04  (-0.3754492E-04)
 number of electron     384.0000007 magnetization 
 augmentation part       94.9922328 magnetization 

 Broyden mixing:
  rms(total) = 0.49696E-02    rms(broyden)= 0.49682E-02
  rms(prec ) = 0.56958E-02
  weight for this iteration     100.00

 eigenvalues of (default mixing * dielectric matrix)
  average eigenvalue GAMMA=   1.2875
  2.7357  2.3221  0.8912  0.8912  1.0744  1.0744  0.9372  0.8307  0.8307

 Free energy of the ion-electron system (eV)
  ---------------------------------------------------
  alpha Z        PSCENC =      1233.39627715
  Ewald energy   TEWEN  =    -28377.81960260
  -Hartree energ DENC   =    -12222.60779156
  -exchange      EXHF   =         0.00000000
  -V(xc)+E(xc)   XCENC  =      1244.73781132
  PAW double counting   =     35738.23161175   -35129.14581351
  entropy T*S    EENTRO =        -0.00035131
  eigenvalues    EBANDS =     -3036.39107272
  atomic energy  EATOM  =     40341.65184589
  Solvation  Ediel_sol  =         0.00000000
  ---------------------------------------------------
  free energy    TOTEN  =      -207.94708557 eV

  energy without entropy =     -207.94673426  energy(sigma->0) =     -207.94690992


--------------------------------------------------------------------------------------------------------




--------------------------------------- Iteration      1(  15)  ---------------------------------------


    POTLOK:  cpu time      0.1760: real time      0.1762
    SETDIJ:  cpu time      0.6268: real time      0.6275
     EDDAV:  cpu time     45.3863: real time     45.4080
       DOS:  cpu time      0.0026: real time      0.0028
    CHARGE:  cpu time      1.2222: real time      1.2225
    MIXING:  cpu time      0.0069: real time      0.0069
    --------------------------------------------
      LOOP:  cpu time     47.4209: real time     47.4437

 eigenvalue-minimisations  :  8176
 total energy-change (2. order) : 0.2014196E-04  (-0.7457073E-05)
 number of electron     384.0000007 magnetization 
 augmentation part       94.9948629 magnetization 

 Broyden mixing:
  rms(total) = 0.23280E-02    rms(broyden)= 0.23272E-02
  rms(prec ) = 0.26230E-02
  weight for this iteration     100.00

 eigenvalues of (default mixing * dielectric matrix)
  average eigenvalue GAMMA=   1.3042
  2.7282  2.2753  1.2702  1.2702  1.2492  0.9843  0.8171  0.8171  0.8151  0.8151

 Free energy of the ion-electron system (eV)
  ---------------------------------------------------
  alpha Z        PSCENC =      1233.39627715
  Ewald energy   TEWEN  =    -28377.81960260
  -Hartree energ DENC   =    -12222.52462516
  -exchange      EXHF   =         0.00000000
  -V(xc)+E(xc)   XCENC  =      1244.73091330
  PAW double counting   =     35737.68776258   -35128.57937181
  entropy T*S    EENTRO =        -0.00035580
  eigenvalues    EBANDS =     -3036.48990899
  atomic energy  EATOM  =     40341.65184589
  Solvation  Ediel_sol  =         0.00000000
  ---------------------------------------------------
  free energy    TOTEN  =      -207.94706543 eV

  energy without entropy =     -207.94670963  energy(sigma->0) =     -207.94688753


--------------------------------------------------------------------------------------------------------




--------------------------------------- Iteration      1(  16)  ---------------------------------------


    POTLOK:  cpu time      0.1763: real time      0.1764
    SETDIJ:  cpu time      0.6234: real time      0.6236
     EDDAV:  cpu time     38.7654: real time     38.7708
       DOS:  cpu time      0.0024: real time      0.0026
    CHARGE:  cpu time      1.2232: real time      1.2233
    MIXING:  cpu time      0.0068: real time      0.0068
    --------------------------------------------
      LOOP:  cpu time     40.7975: real time     40.8034

 eigenvalue-minimisations  :  6632
 total energy-change (2. order) : 0.4986978E-05  (-0.7988321E-06)
 number of electron     384.0000007 magnetization 
 augmentation part       94.9957021 magnetization 

 Broyden mixing:
  rms(total) = 0.12201E-02    rms(broyden)= 0.12199E-02
  rms(prec ) = 0.13906E-02
  weight for this iteration     100.00

 eigenvalues of (default mixing * dielectric matrix)
  average eigenvalue GAMMA=   1.3406
  2.7401  2.4084  1.6978  1.6978  0.9810  0.9810  0.9114  0.8455  0.8455  0.8189
  0.8189

 Free energy of the ion-electron system (eV)
  ---------------------------------------------------
  alpha Z        PSCENC =      1233.39627715
  Ewald energy   TEWEN  =    -28377.81960260
  -Hartree energ DENC   =    -12222.47974128
  -exchange      EXHF   =         0.00000000
  -V(xc)+E(xc)   XCENC  =      1244.72774945
  PAW double counting   =     35736.99189826   -35127.87120582
  entropy T*S    EENTRO =        -0.00035801
  eigenvalues    EBANDS =     -3036.54392349
  atomic energy  EATOM  =     40341.65184589
  Solvation  Ediel_sol  =         0.00000000
  ---------------------------------------------------
  free energy    TOTEN  =      -207.94706044 eV

  energy without entropy =     -207.94670243  energy(sigma->0) =     -207.94688144


--------------------------------------------------------------------------------------------------------




--------------------------------------- Iteration      1(  17)  ---------------------------------------


    POTLOK:  cpu time      0.1751: real time      0.1752
[...]
    168       3.4145      2.00000
    169       4.0972      2.00000
    170       4.1084      2.00000
    171       4.1292      2.00000
    172       4.1292      2.00000
    173       4.2421      2.00000
    174       4.2592      2.00000
    175       4.2707      2.00000
    176       4.2707      2.00000
    177       4.2954      2.00000
    178       4.2954      2.00000
    179       4.3148      2.00000
    180       4.3296      2.00000
    181       4.6700      2.00000
    182       4.6700      2.00000
    183       4.6761      2.00000
    184       4.6914      2.00000
    185       5.0050      2.00000
    186       5.0050      2.00000
    187       5.0104      2.00000
    188       5.0171      2.00000
    189       5.0993      2.00000
    190       5.0993      2.00000
    191       5.1081      2.00000
    192       5.1107      2.00000
    193       7.0314      0.00000
    194       7.0496      0.00000
    195       7.0496      0.00000
    196       7.0796      0.00000
    197       7.7177      0.00000
    198       7.7444      0.00000
    199       7.7444      0.00000
    200       7.7732      0.00000
    201       8.3141      0.00000
    202       8.3289      0.00000
    203       8.3451      0.00000
    204       8.3451      0.00000
    205       8.5847      0.00000
    206       8.5847      0.00000
    207       8.6049      0.00000
    208       8.6116      0.00000
    209       8.6154      0.00000
    210       8.6305      0.00000
    211       8.6448      0.00000
    212       8.6448      0.00000
    213       8.7192      0.00000
    214       8.7192      0.00000
    215       8.7367      0.00000
    216       8.7594      0.00000
    217       9.3833      0.00000
    218       9.3833      0.00000
    219       9.3931      0.00000
    220       9.3996      0.00000
    221       9.5079      0.00000
    222       9.5079      0.00000
    223       9.5102      0.00000
    224       9.5280      0.00000
    225      10.0880      0.00000
    226      10.0881      0.00000
    227      10.1260      0.00000
    228      10.1575      0.00000
    229      10.1649      0.00000
    230      10.2052      0.00000
    231      10.2071      0.00000
    232      10.2101      0.00000


--------------------------------------------------------------------------------------------------------


 soft charge-density along one line, spin component           1
         0         1         2         3         4         5         6         7         8         9
 total charge-density along one line
 
 pseudopotential strength for first ion, spin component:           1
-18.385   0.001   0.001   0.001  -0.000   4.359  -0.001  -0.000
  0.001 -18.375   0.001  -0.001  -0.001  -0.001   4.355  -0.000
  0.001   0.001 -18.397   0.001  -0.000  -0.000  -0.000   4.368
  0.001  -0.001   0.001 -18.375   0.001  -0.001   0.000  -0.000
 -0.000  -0.001  -0.000   0.001 -18.367   0.000   0.001   0.000
  4.359  -0.001  -0.000  -0.001   0.000   5.605   0.000   0.000
 -0.001   4.355  -0.000   0.000   0.001   0.000   5.606   0.000
 -0.000  -0.000   4.368  -0.000   0.000   0.000   0.000   5.605
 -0.001   0.000  -0.000   4.355  -0.001   0.000  -0.000   0.000
  0.000   0.001   0.000  -0.001   4.349   0.000  -0.000  -0.000
 -0.000   0.000   0.004   0.000  -0.000   0.000  -0.000   0.005
  0.000  -0.000  -0.005  -0.000  -0.000  -0.000   0.001  -0.007
  0.000  -0.016  -0.000  -0.000  -0.000   0.000   0.003   0.000
 -0.000   0.000  -0.019   0.000  -0.000  -0.000   0.000   0.002
  0.000  -0.000  -0.000  -0.016   0.000   0.000  -0.000   0.000
  0.000  -0.027  -0.000  -0.000  -0.000   0.000   0.002   0.000
 -0.000   0.000  -0.029   0.000  -0.000  -0.000   0.000  -0.001
  0.000  -0.000  -0.000  -0.027   0.000   0.000  -0.000   0.000
 total augmentation occupancy for first ion, spin component:           1
  1.998   0.000   0.000   0.000   0.000  -0.007   0.000   0.000   0.000   0.000  -0.000  -0.000   0.000  -0.000   0.000  -0.000
  0.000   1.997  -0.000  -0.000   0.000   0.000  -0.007   0.000  -0.000  -0.000   0.000   0.000   0.033   0.000  -0.000  -0.012
  0.000  -0.000   1.999  -0.000   0.000   0.000   0.000  -0.004   0.000  -0.000   0.001   0.000   0.000   0.029   0.000  -0.000
  0.000  -0.000  -0.000   1.997  -0.000   0.000  -0.000   0.000  -0.007   0.000   0.000   0.000  -0.000   0.000   0.033   0.000
  0.000   0.000   0.000  -0.000   1.997   0.000  -0.000  -0.000   0.000  -0.009   0.000   0.000   0.000   0.000  -0.000  -0.000
 -0.007   0.000   0.000   0.000   0.000   0.017   0.000   0.000   0.000   0.000  -0.000  -0.000   0.002  -0.001   0.002  -0.000
  0.000  -0.007   0.000  -0.000  -0.000   0.000   0.038   0.000  -0.000  -0.000   0.000   0.000  -0.076   0.000  -0.001   0.010
  0.000   0.000  -0.004   0.000  -0.000   0.000   0.000   0.013   0.000   0.000   0.012  -0.005  -0.000   0.009  -0.000   0.000
  0.000  -0.000   0.000  -0.007   0.000   0.000  -0.000   0.000   0.038   0.000   0.000   0.000  -0.001   0.000  -0.076   0.000
  0.000  -0.000  -0.000   0.000  -0.009   0.000  -0.000   0.000   0.000   0.047   0.000  -0.000   0.001   0.000  -0.001  -0.000
 -0.000   0.000   0.001   0.000   0.000  -0.000   0.000   0.012   0.000   0.000   2.044  -0.030  -0.000   0.158  -0.000  -0.000
 -0.000   0.000   0.000   0.000   0.000  -0.000   0.000  -0.005   0.000  -0.000  -0.030   0.027   0.000  -0.071   0.000   0.000
  0.000   0.033   0.000  -0.000   0.000   0.002  -0.076  -0.000  -0.001   0.001  -0.000   0.000   0.840   0.007  -0.005  -0.070
 -0.000   0.000   0.029   0.000   0.000  -0.001   0.000   0.009   0.000   0.000   0.158  -0.071   0.007   0.894   0.007  -0.001
  0.000  -0.000   0.000   0.033  -0.000   0.002  -0.001  -0.000  -0.076  -0.001  -0.000   0.000  -0.005   0.007   0.840   0.000
 -0.000  -0.012  -0.000   0.000  -0.000  -0.000   0.010   0.000   0.000  -0.000  -0.000   0.000  -0.070  -0.001   0.000   0.008
  0.000   0.000  -0.018   0.000  -0.000   0.000   0.000  -0.000   0.000  -0.000  -0.012   0.007  -0.001  -0.068  -0.001   0.000
 -0.000   0.000  -0.000  -0.012   0.000  -0.000   0.000   0.000   0.010   0.000  -0.000   0.000   0.000  -0.001  -0.070  -0.000


------------------------ aborting loop because EDIFF is reached ----------------------------------------


    CHARGE:  cpu time      1.2233: real time      1.2237
    FORLOC:  cpu time      0.0162: real time      0.0162
    FORNL :  cpu time      9.0643: real time      9.0671
    STRESS:  cpu time     20.0582: real time     20.0663
    FORCOR:  cpu time      0.1782: real time      0.1784
    FORHAR:  cpu time      0.0592: real time      0.0592
    MIXING:  cpu time      0.0047: real time      0.0047
    OFIELD:  cpu time      0.0001: real time      0.0001

  FORCE on cell =-STRESS in cart. coord.  units (eV):
  Direction    XX          YY          ZZ          XY          YZ          ZX
  --------------------------------------------------------------------------------------
  Alpha Z  1233.39628  1233.39628  1233.39628
  Ewald   -7322.87064 -7322.87064-13732.18993    -0.00000    -0.00000    -0.00000
  Hartree  5914.27042  5914.27042   393.90512    -0.00000    -0.00000    -0.00000
  E(xc)   -1819.90552 -1819.90552 -1822.08684    -0.00000     0.00000    -0.00000
  Local   -6689.01659 -6689.01659  5244.11061     0.00000    -0.00000     0.00000
  n-local  1564.84509  1574.25466  1570.92005     0.29869    -0.05676     0.09014
  augment  2176.21614  2176.21614  2161.62951    -0.00000     0.00000     0.00000
  Kinetic  4906.20265  4915.72976  4929.94816    -3.15628     0.42929    -0.46134
  Fock        0.00000     0.00000     0.00000     0.00000     0.00000     0.00000
  -------------------------------------------------------------------------------------
  Total     -27.39383   -27.39383   -20.36703     0.00000     0.00000     0.00000
  in kB     -53.58922   -53.58922   -39.84304     0.00000     0.00000     0.00000
  external pressure =      -49.01 kB  Pullay stress =        0.00 kB


 VOLUME and BASIS-vectors are now :
 -----------------------------------------------------------------------------
  energy-cutoff  :      520.00
  volume of cell :      819.00
      direct lattice vectors                 reciprocal lattice vectors
     8.036163025  0.000000000  0.000000000     0.124437495  0.000000000  0.000000000
     0.000000000  8.036163025  0.000000000     0.000000000  0.124437495  0.000000000
     0.000000000  0.000000000 12.682019352     0.000000000  0.000000000  0.078851796

  length of vectors
     8.036163025  8.036163025 12.682019352     0.124437495  0.124437495  0.078851796


 FORCES acting on ions
    electron-ion (+dipol)            ewald-force                    non-local-force                 convergence-correction
 -----------------------------------------------------------------------------------------------
   -.525E+01 -.525E+01 -.451E+03   0.519E+01 0.519E+01 0.461E+03   0.611E-01 0.611E-01 -.103E+02   0.919E-07 0.918E-07 0.116E-06
   0.525E+01 -.525E+01 -.451E+03   -.519E+01 0.519E+01 0.461E+03   -.611E-01 0.611E-01 -.103E+02   -.919E-07 0.918E-07 0.116E-06
   -.525E+01 0.525E+01 -.451E+03   0.519E+01 -.519E+01 0.461E+03   0.611E-01 -.611E-01 -.103E+02   0.918E-07 -.918E-07 0.116E-06
   0.525E+01 0.525E+01 -.451E+03   -.519E+01 -.519E+01 0.461E+03   -.611E-01 -.611E-01 -.103E+02   -.918E-07 -.918E-07 0.116E-06
   0.620E-12 -.545E-12 0.477E+03   -.142E-13 -.284E-13 -.487E+03   -.345E-18 -.285E-18 0.989E+01   -.140E-11 -.264E-11 0.363E-05
   0.147E-11 0.189E-11 0.480E+03   0.000E+00 0.604E-13 -.490E+03   0.301E-18 0.140E-18 0.101E+02   0.104E-11 0.226E-11 0.592E-06
   0.202E-11 -.721E-11 0.480E+03   0.853E-13 -.568E-13 -.490E+03   -.194E-19 -.403E-18 0.101E+02   0.151E-12 0.516E-11 0.592E-06
   0.143E-11 -.518E-11 0.483E+03   0.711E-13 0.977E-13 -.493E+03   0.121E-17 0.194E-18 0.104E+02   -.698E-12 -.111E-11 -.262E-05
   0.193E-11 -.153E-10 -.477E+03   -.284E-13 0.000E+00 0.487E+03   0.552E-18 -.189E-18 -.989E+01   0.631E-11 -.401E-11 -.363E-05
   0.144E-11 0.309E-11 -.480E+03   0.853E-13 -.959E-13 0.490E+03   0.256E-18 -.171E-18 -.101E+02   -.664E-11 -.345E-11 -.592E-06
   0.558E-12 0.309E-11 -.480E+03   -.995E-13 0.142E-12 0.490E+03   -.176E-18 -.701E-19 -.101E+02   0.771E-11 0.420E-11 -.592E-06
   0.139E-11 -.557E-11 -.483E+03   0.426E-13 0.142E-13 0.493E+03   -.543E-18 0.109E-18 -.104E+02   -.787E-11 0.306E-11 0.262E-05
   -.525E+01 -.525E+01 0.451E+03   0.519E+01 0.519E+01 -.461E+03   0.611E-01 0.611E-01 0.103E+02   0.918E-07 0.918E-07 -.116E-06
   0.525E+01 -.525E+01 0.451E+03   -.519E+01 0.519E+01 -.461E+03   -.611E-01 0.611E-01 0.103E+02   -.918E-07 0.918E-07 -.116E-06
   -.525E+01 0.525E+01 0.451E+03   0.519E+01 -.519E+01 -.461E+03   0.611E-01 -.611E-01 0.103E+02   0.918E-07 -.918E-07 -.116E-06
   0.525E+01 0.525E+01 0.451E+03   -.519E+01 -.519E+01 -.461E+03   -.611E-01 -.611E-01 0.103E+02   -.918E-07 -.918E-07 -.116E-06
   0.111E-11 0.101E-11 0.287E-12   -.568E-13 0.426E-13 0.140E-11   0.572E-27 -.594E-26 -.149E-26   0.291E-11 0.213E-11 -.339E-11
   0.108E-11 0.710E-11 0.714E-11   0.568E-13 -.568E-13 0.153E-11   0.715E-26 0.136E-26 -.365E-26   0.368E-12 -.232E-11 -.173E-11
   0.109E-11 -.489E-12 -.242E-11   0.000E+00 0.142E-13 0.144E-11   0.552E-26 0.733E-26 0.342E-28   -.400E-12 -.211E-11 -.278E-11
   -.339E+01 -.339E+01 0.194E-06   0.340E+01 0.340E+01 -.134E-10   -.159E-01 -.159E-01 0.997E-21   0.566E-06 0.566E-06 0.219E-11
   0.339E+01 -.339E+01 0.444E-11   -.340E+01 0.340E+01 -.134E-10   0.159E-01 -.159E-01 0.168E-20   -.566E-06 0.566E-06 0.571E-11
   -.339E+01 0.339E+01 0.487E-11   0.340E+01 -.340E+01 -.134E-10   -.159E-01 0.159E-01 -.141E-19   0.566E-06 -.566E-06 0.190E-11
   0.339E+01 0.339E+01 -.194E-06   -.340E+01 -.340E+01 -.134E-10   0.159E-01 0.159E-01 0.141E-19   -.566E-06 -.566E-06 0.355E-11
   0.334E-11 -.132E+01 0.788E+01   -.426E-13 0.123E+01 -.807E+01   0.427E-19 0.929E-01 0.195E+00   -.104E-11 -.131E-05 -.464E-06
   0.315E-11 -.717E+00 0.411E+01   -.568E-13 0.609E+00 -.392E+01   -.225E-18 0.108E+00 -.196E+00   0.869E-12 -.147E-05 0.168E-05
   0.335E-11 0.132E+01 0.788E+01   0.000E+00 -.123E+01 -.807E+01   -.176E-18 -.929E-01 0.195E+00   -.121E-11 0.131E-05 -.464E-06
   0.316E-11 0.717E+00 0.411E+01   0.284E-13 -.609E+00 -.392E+01   -.290E-18 -.108E+00 -.196E+00   0.102E-11 0.147E-05 0.168E-05
   -.132E+01 0.397E-11 0.788E+01   0.123E+01 -.178E-13 -.807E+01   0.929E-01 -.125E-18 0.195E+00   -.131E-05 -.109E-12 -.464E-06
   0.132E+01 0.359E-12 0.788E+01   -.123E+01 -.284E-13 -.807E+01   -.929E-01 0.358E-18 0.195E+00   0.131E-05 0.858E-12 -.464E-06
   -.717E+00 0.608E-11 0.411E+01   0.609E+00 -.462E-13 -.392E+01   0.108E+00 0.841E-19 -.196E+00   -.147E-05 -.141E-11 0.168E-05
   0.717E+00 0.152E-11 0.411E+01   -.609E+00 -.568E-13 -.392E+01   -.108E+00 -.338E-18 -.196E+00   0.147E-05 0.158E-12 0.168E-05
   -.132E+01 0.548E-11 -.788E+01   0.123E+01 0.284E-13 0.807E+01   0.929E-01 0.162E-18 -.195E+00   -.131E-05 -.493E-12 0.464E-06
   0.132E+01 0.204E-11 -.788E+01   -.123E+01 0.426E-13 0.807E+01   -.929E-01 -.334E-18 -.195E+00   0.131E-05 -.163E-11 0.464E-06
   -.717E+00 0.516E-11 -.411E+01   0.609E+00 -.213E-13 0.392E+01   0.108E+00 -.286E-19 0.196E+00   -.147E-05 -.186E-13 -.168E-05
   0.717E+00 0.637E-11 -.411E+01   -.609E+00 0.000E+00 0.392E+01   -.108E+00 -.119E-18 0.196E+00   0.147E-05 0.128E-11 -.168E-05
   0.338E-11 -.132E+01 -.788E+01   0.000E+00 0.123E+01 0.807E+01   -.746E-19 0.929E-01 -.195E+00   0.394E-11 -.131E-05 0.464E-06
   0.313E-11 -.717E+00 -.411E+01   -.284E-13 0.609E+00 0.392E+01   0.161E-18 0.108E+00 0.196E+00   -.400E-11 -.147E-05 -.168E-05
   0.288E-11 0.132E+01 -.788E+01   0.142E-13 -.123E+01 0.807E+01   0.167E-18 -.929E-01 -.195E+00   0.303E-11 0.131E-05 0.464E-06
   0.315E-11 0.717E+00 -.411E+01   0.000E+00 -.609E+00 0.392E+01   0.262E-18 -.108E+00 0.196E+00   -.305E-11 0.147E-05 -.168E-05
   0.111E-11 -.672E-11 0.846E-11   -.568E-13 0.000E+00 0.113E-11   0.286E-26 0.670E-27 -.179E-25   -.311E-11 0.185E-11 -.190E-11
 -----------------------------------------------------------------------------------------------
   0.230E-09 0.206E-09 0.334E-09   0.171E-12 -.107E-12 -.124E-12   0.144E-16 -.139E-16 -.358E-14   -.142E-11 0.174E-11 -.174E-10
 
 
 POSITION                                       TOTAL-FORCE (eV/Angst)
 -----------------------------------------------------------------------------------
      2.00084      2.00084     10.78700        -0.000001     -0.000001      0.000001
      6.03532      2.00084     10.78700         0.000001     -0.000001      0.000001
      2.00084      6.03532     10.78700        -0.000001      0.000001      0.000001
      6.03532      6.03532     10.78700         0.000001      0.000001      0.000001
      0.00000      8.03616      8.24583         0.000000     -0.000000     -0.000007
      4.01808      8.03616      8.25914         0.000000     -0.000000     -0.000008
      8.03616      4.01808      8.25914         0.000000     -0.000000     -0.000008
      4.01808      4.01808      8.27385         0.000000     -0.000000     -0.000006
      8.03616      8.03616      4.43619         0.000000     -0.000000      0.000007
      4.01808      8.03616      4.42288         0.000000     -0.000000      0.000008
      0.00000      4.01808      4.42288         0.000000     -0.000000      0.000008
      4.01808      4.01808      4.40817         0.000000     -0.000000      0.000006
      2.00084      2.00084      1.89502        -0.000001     -0.000001     -0.000001
      6.03532      2.00084      1.89502         0.000001     -0.000001     -0.000001
      2.00084      6.03532      1.89502        -0.000001      0.000001     -0.000001
      6.03532      6.03532      1.89502         0.000001      0.000001     -0.000001
      4.01808      0.00000     12.68202         0.000000     -0.000000     -0.000000
      8.03616      4.01808     12.68202         0.000000     -0.000000     -0.000000
      4.01808      4.01808     12.68202         0.000000     -0.000000     -0.000000
      2.00279      2.00279      6.34101        -0.000005     -0.000005     -0.000000
      6.03337      2.00279      6.34101         0.000005     -0.000005     -0.000000
      2.00279      6.03337      6.34101        -0.000005      0.000005     -0.000000
      6.03337      6.03337      6.34101         0.000005      0.000005     -0.000000
      8.03616      2.00736      9.52021         0.000000      0.000002      0.000004
      4.01808      2.00844      9.52675         0.000000      0.000002     -0.000001
      8.03616      6.02880      9.52021         0.000000     -0.000002      0.000004
      4.01808      6.02772      9.52675         0.000000     -0.000002     -0.000001
      2.00736      8.03616      9.52021         0.000002     -0.000000      0.000004
      6.02880      0.00000      9.52021        -0.000002     -0.000000      0.000004
      2.00844      4.01808      9.52675         0.000002     -0.000000     -0.000001
      6.02772      4.01808      9.52675        -0.000002     -0.000000     -0.000001
      2.00736      0.00000      3.16181         0.000002     -0.000000     -0.000004
      6.02880      8.03616      3.16181        -0.000002     -0.000000     -0.000004
      2.00844      4.01808      3.15527         0.000002     -0.000000      0.000001
      6.02772      4.01808      3.15527        -0.000002     -0.000000      0.000001
      8.03616      2.00736      3.16181         0.000000      0.000002     -0.000004
      4.01808      2.00844      3.15527         0.000000      0.000002      0.000001
      0.00000      6.02880      3.16181         0.000000     -0.000002     -0.000004
      4.01808      6.02772      3.15527         0.000000     -0.000002      0.000001
      8.03616      8.03616     12.68202         0.000000     -0.000000     -0.000000
 -----------------------------------------------------------------------------------
    total drift:                                0.000000      0.000000      0.000000


--------------------------------------------------------------------------------------------------------



  FREE ENERGIE OF THE ION-ELECTRON SYSTEM (eV)
  ---------------------------------------------------
  free  energy   TOTEN  =      -207.94705871 eV

  energy  without entropy=     -207.94669925  energy(sigma->0) =     -207.94687898
 
 d Force = 0.4000456E-10[ 0.190E-11, 0.781E-10]  d Energy = 0.3037712E-09-0.264E-09
 d Force =-0.3695208E-03[-0.370E-03,-0.370E-03]  d Ewald  =-0.3695214E-03 0.637E-09


--------------------------------------------------------------------------------------------------------


    POTLOK:  cpu time      0.8009: real time      0.8011


--------------------------------------------------------------------------------------------------------




--------------------------------------------------------------------------------------------------------


  
 reached required accuracy - stopping structural energy minimisation
     LOOP+:  cpu time    161.3123: real time    161.3443
    4ORBIT:  cpu time      0.0000: real time      0.0000

 total amount of memory used by VASP MPI-rank0    98346. kBytes
=======================================================================

   base      :      30000. kBytes
   nonl-proj :      18668. kBytes
   fftplans  :      13008. kBytes
   grid      :       8308. kBytes
   one-center:         77. kBytes
   wavefun   :      28285. kBytes
 
  
  
 General timing and accounting informations for this job:
 ========================================================
  
                  Total CPU time used (sec):     1381.497
                            User time (sec):     1377.198
                          System time (sec):        4.300
                         Elapsed time (sec):     1381.802
  
                   Maximum memory used (kb):      197972.
                   Average memory used (kb):          N/A
  
                          Minor page faults:        36268
                          Major page faults:            7
                 Voluntary context switches:          149
