<?xml version="1.0" encoding="ISO-8859-1"?>
<modeling>
 <generator>
  <i name="program" type="string">vasp </i>
  <i name="version" type="string">6.4.3  </i>
  <i name="subversion" type="string">19Mar24 (build Apr 09 2025 20:43:19) complex                          parallel </i>
  <i name="platform" type="string">LinuxIFC </i>
  <i name="date" type="string">2025 04 15 </i>
  <i name="time" type="string">08:05:13 </i>
 </generator>
 <incar>
  <i type="string" name="PREC">Accurate</i>
  <i type="int" name="IALGO">    38</i>
  <i type="logical" name="ADDGRID"> T  </i>
  <i type="int" name="NELMIN">     5</i>
  <i type="int" name="IBRION">     2</i>
  <i name="EDIFF">      0.00000001</i>
  <i name="EDIFFG">     -0.00001000</i>
  <i type="int" name="NSW">   100</i>
  <i type="int" name="ISIF">     2</i>
  <i name="ENCUT">    520.00000000</i>
  <i type="logical" name="LREAL"> F  </i>
  <i type="int" name="ISMEAR">     0</i>
  <i name="SIGMA">      0.05000000</i>
  <i type="logical" name="LWAVE"> F  </i>
  <i type="logical" name="LCHARG"> F  </i>
 </incar>
 <primitive_cell>
  <structure name="primitive_cell" >
   <crystal>
    <varray name="basis" >
     <v>       8.03616302       0.00000000       0.00000000 </v>
     <v>       0.00000000       8.03616302       0.00000000 </v>
     <v>       0.00000000       0.00000000      12.68201935 </v>
    </varray>
    <i name="volume">    819.00374650 </i>
    <varray name="rec_basis" >
     <v>       0.12443750       0.00000000       0.00000000 </v>
     <v>       0.00000000       0.12443750       0.00000000 </v>
     <v>       0.00000000       0.00000000       0.07885180 </v>
    </varray>
   </crystal>
   <varray name="positions" >
    <v>       0.24897953       0.24897953       0.85057427 </v>
    <v>       0.75102047       0.24897953       0.85057427 </v>
    <v>       0.24897953       0.75102047       0.85057427 </v>
    <v>       0.75102047       0.75102047       0.85057427 </v>
    <v>       0.00000000       0.00000000       0.65019854 </v>
    <v>       0.50000000       0.00000000       0.65124784 </v>
    <v>       0.00000000       0.50000000       0.65124784 </v>
    <v>       0.50000000       0.50000000       0.65240747 </v>
    <v>       0.00000000       0.00000000       0.34980146 </v>
    <v>       0.50000000       0.00000000       0.34875216 </v>
    <v>       0.00000000       0.50000000       0.34875216 </v>
    <v>       0.50000000       0.50000000       0.34759253 </v>
    <v>       0.24897953       0.24897953       0.14942573 </v>
    <v>       0.75102047       0.24897953       0.14942573 </v>
    <v>       0.24897953       0.75102047       0.14942573 </v>
    <v>       0.75102047       0.75102047       0.14942573 </v>
    <v>       0.50000000       0.00000000       0.00000000 </v>
    <v>       0.00000000       0.50000000       0.00000000 </v>
    <v>       0.50000000       0.50000000       0.00000000 </v>
    <v>       0.24922273       0.24922273       0.50000000 </v>
    <v>       0.75077727       0.24922273       0.50000000 </v>
    <v>       0.24922273       0.75077727       0.50000000 </v>
    <v>       0.75077727       0.75077727       0.50000000 </v>
    <v>       0.00000000       0.24979065       0.75068560 </v>
    <v>       0.50000000       0.24992516       0.75120115 </v>
    <v>       0.00000000       0.75020935       0.75068560 </v>
    <v>       0.50000000       0.75007484       0.75120115 </v>
    <v>       0.24979065       0.00000000       0.75068560 </v>
    <v>       0.75020935       0.00000000       0.75068560 </v>
    <v>       0.24992516       0.50000000       0.75120115 </v>
    <v>       0.75007484       0.50000000       0.75120115 </v>
    <v>       0.24979065       0.00000000       0.24931440 </v>
    <v>       0.75020935       0.00000000       0.24931440 </v>
    <v>       0.24992516       0.50000000       0.24879885 </v>
    <v>       0.75007484       0.50000000       0.24879885 </v>
    <v>       0.00000000       0.24979065       0.24931440 </v>
    <v>       0.50000000       0.24992516       0.24879885 </v>
    <v>       0.00000000       0.75020935       0.24931440 </v>
    <v>       0.50000000       0.75007484       0.24879885 </v>
    <v>       0.00000000       0.00000000       0.00000000 </v>
   </varray>
  </structure>
  <varray name="primitive_index" >
   <v type="int" >        1 </v>
   <v type="int" >        2 </v>
   <v type="int" >        3 </v>
   <v type="int" >        4 </v>
   <v type="int" >        5 </v>
   <v type="int" >        6 </v>
   <v type="int" >        7 </v>
   <v type="int" >        8 </v>
   <v type="int" >        9 </v>
   <v type="int" >       10 </v>
   <v type="int" >       11 </v>
   <v type="int" >       12 </v>
   <v type="int" >       13 </v>
   <v type="int" >       14 </v>
   <v type="int" >       15 </v>
   <v type="int" >       16 </v>
   <v type="int" >       17 </v>
   <v type="int" >       18 </v>
   <v type="int" >       19 </v>
   <v type="int" >       20 </v>
   <v type="int" >       21 </v>
   <v type="int" >       22 </v>
   <v type="int" >       23 </v>
   <v type="int" >       24 </v>
   <v type="int" >       25 </v>
   <v type="int" >       26 </v>
   <v type="int" >       27 </v>
   <v type="int" >       28 </v>
   <v type="int" >       29 </v>
   <v type="int" >       30 </v>
   <v type="int" >       31 </v>
   <v type="int" >       32 </v>
   <v type="int" >       33 </v>
   <v type="int" >       34 </v>
   <v type="int" >       35 </v>
   <v type="int" >       36 </v>
   <v type="int" >       37 </v>
   <v type="int" >       38 </v>
   <v type="int" >       39 </v>
   <v type="int" >       40 </v>
  </varray>
 </primitive_cell>
 <kpoints>
  <generation param="Gamma">
   <v type="int" name="divisions">       4        4        3 </v>
   <v name="usershift">      0.00000000       0.00000000       0.00000000 </v>
   <v name="genvec1">      0.25000000       0.00000000       0.00000000 </v>
   <v name="genvec2">      0.00000000       0.25000000       0.00000000 </v>
   <v name="genvec3">      0.00000000       0.00000000       0.33333333 </v>
   <v name="shift">      0.00000000       0.00000000       0.00000000 </v>
  </generation>
  <varray name="kpointlist" >
   <v>       0.00000000       0.00000000       0.00000000 </v>
   <v>       0.25000000       0.00000000       0.00000000 </v>
   <v>       0.50000000       0.00000000       0.00000000 </v>
   <v>       0.25000000       0.25000000       0.00000000 </v>
   <v>       0.50000000       0.25000000       0.00000000 </v>
   <v>       0.50000000       0.50000000       0.00000000 </v>
   <v>       0.00000000       0.00000000       0.33333333 </v>
   <v>       0.25000000       0.00000000       0.33333333 </v>
   <v>       0.50000000       0.00000000       0.33333333 </v>
   <v>       0.25000000       0.25000000       0.33333333 </v>
   <v>       0.50000000       0.25000000       0.33333333 </v>
   <v>       0.50000000       0.50000000       0.33333333 </v>
  </varray>
  <varray name="weights" >
   <v>       0.02083333 </v>
   <v>       0.08333333 </v>
   <v>       0.04166667 </v>
   <v>       0.08333333 </v>
   <v>       0.08333333 </v>
   <v>       0.02083333 </v>
   <v>       0.04166667 </v>
   <v>       0.16666667 </v>
   <v>       0.08333333 </v>
   <v>       0.16666667 </v>
   <v>       0.16666667 </v>
   <v>       0.04166667 </v>
  </varray>
 </kpoints>
 <parameters>
  <separator name="general" >
   <i type="string" name="SYSTEM">unknown system</i>
   <i type="logical" name="LCOMPAT"> F  </i>
  </separator>
  <separator name="electronic" >
   <i type="string" name="PREC">accura</i>
   <i name="ENMAX">    520.00000000</i>
   <i name="ENAUG">    605.39200000</i>
   <i name="EDIFF">      0.00000001</i>
   <i type="int" name="IALGO">    38</i>
   <i type="int" name="IWAVPR">    11</i>
   <i type="int" name="NBANDS">   232</i>
   <i type="int" name="NBANDSLOW">    -1</i>
   <i type="int" name="NBANDSHIGH">    -1</i>
   <i name="NELECT">    384.00000000</i>
   <i type="int" name="TURBO">     0</i>
   <i type="int" name="IRESTART">     0</i>
   <i type="int" name="NREBOOT">     0</i>
   <i type="int" name="NMIN">     0</i>
   <i name="EREF">      0.00000000</i>
   <separator name="electronic smearing" >
    <i type="int" name="ISMEAR">     0</i>
    <i name="SIGMA">      0.05000000</i>
    <i name="KSPACING">      0.50000000</i>
    <i type="logical" name="KGAMMA"> T  </i>
    <i type="logical" name="KBLOWUP"> T  </i>
   </separator>
   <separator name="electronic projectors" >
    <i type="logical" name="LREAL"> F  </i>
    <v name="ROPT">      0.00000000      0.00000000      0.00000000      0.00000000</v>
    <i type="int" name="LMAXPAW">  -100</i>
    <i type="int" name="LMAXMIX">     2</i>
    <i type="logical" name="NLSPLINE"> F  </i>
   </separator>
   <separator name="electronic startup" >
    <i type="int" name="ISTART">     0</i>
    <i type="int" name="ICHARG">     2</i>
    <i type="int" name="INIWAV">     1</i>
   </separator>
   <separator name="electronic spin" >
    <i type="int" name="ISPIN">     1</i>
    <i type="logical" name="LNONCOLLINEAR"> F  </i>
    <v name="MAGMOM">      1.00000000      1.00000000      1.00000000      1.00000000      1.00000000      1.00000000      1.00000000      1.00000000      1.00000000      1.00000000      1.00000000      1.00000000      1.00000000      1.00000000      1.00000000      1.00000000      1.00000000      1.00000000      1.00000000      1.00000000
      1.00000000      1.00000000      1.00000000      1.00000000      1.00000000      1.00000000      1.00000000      1.00000000      1.00000000      1.00000000      1.00000000      1.00000000      1.00000000      1.00000000      1.00000000      1.00000000      1.00000000      1.00000000      1.00000000      1.00000000
</v>
    <i name="NUPDOWN">     -1.00000000</i>
    <i type="logical" name="LSORBIT"> F  </i>
    <v name="SAXIS">      0.00000000      0.00000000      1.00000000</v>
    <i type="logical" name="LSPIRAL"> F  </i>
    <v name="QSPIRAL">      0.00000000      0.00000000      0.00000000</v>
    <i type="logical" name="LZEROZ"> F  </i>
   </separator>
   <separator name="electronic exchange-correlation" >
    <i type="logical" name="LASPH"> F  </i>
   </separator>
   <separator name="electronic convergence" >
    <i type="int" name="NELM">    60</i>
    <i type="int" name="NELMDL">    -5</i>
    <i type="int" name="NELMIN">     5</i>
    <i name="ENINI">    520.00000000</i>
    <separator name="electronic convergence detail" >
     <i type="logical" name="LDIAG"> T  </i>
     <i type="logical" name="LSUBROT"> F  </i>
     <i name="WEIMIN">      0.00100000</i>
     <i name="EBREAK">      0.00000000</i>
     <i name="DEPER">      0.30000000</i>
     <i type="int" name="NRMM">     4</i>
     <i name="TIME">      0.40000000</i>
    </separator>
   </separator>
   <separator name="electronic mixer" >
    <i name="AMIX">      0.40000000</i>
    <i name="BMIX">      1.00000000</i>
    <i name="AMIN">      0.10000000</i>
    <i name="AMIX_MAG">      1.60000000</i>
    <i name="BMIX_MAG">      1.00000000</i>
    <separator name="electronic mixer details" >
     <i type="int" name="IMIX">     4</i>
     <i type="logical" name="MIXFIRST"> F  </i>
     <i type="int" name="MAXMIX">   -45</i>
     <i name="WC">    100.00000000</i>
     <i type="int" name="INIMIX">     1</i>
     <i type="int" name="MIXPRE">     1</i>
     <i type="int" name="MREMOVE">     5</i>
    </separator>
   </separator>
   <separator name="electronic dipolcorrection" >
    <i type="logical" name="LDIPOL"> F  </i>
    <i type="logical" name="LMONO"> F  </i>
    <i type="int" name="IDIPOL">     0</i>
    <i name="EPSILON">      1.00000000</i>
    <v name="DIPOL">   -100.00000000   -100.00000000   -100.00000000</v>
    <i name="EFIELD">      0.00000000</i>
    <i type="logical" name="LVACPOTAV"> F  </i>
   </separator>
  </separator>
  <separator name="grids" >
   <i type="int" name="NGX">    60</i>
   <i type="int" name="NGY">    60</i>
   <i type="int" name="NGZ">    96</i>
   <i type="int" name="NGXF">   120</i>
   <i type="int" name="NGYF">   120</i>
   <i type="int" name="NGZF">   192</i>
   <i type="logical" name="ADDGRID"> T  </i>
  </separator>
  <separator name="ionic" >
   <i type="int" name="NSW">   100</i>
   <i type="int" name="IBRION">     2</i>
   <i type="int" name="MDALGO">     0</i>
   <i type="int" name="ISIF">     2</i>
   <i name="PSTRESS">      0.00000000</i>
   <i name="EDIFFG">     -0.00001000</i>
   <i type="int" name="NFREE">     1</i>
   <i name="POTIM">      0.50000000</i>
   <i name="SMASS">     -3.00000000</i>
   <i name="SCALEE">      1.00000000</i>
  </separator>
  <separator name="ionic md" >
   <i name="TEBEG">      0.00010000</i>
   <i name="TEEND">      0.00010000</i>
   <i type="int" name="NBLOCK">     1</i>
   <i type="int" name="KBLOCK">   100</i>
   <i type="int" name="NPACO">   256</i>
   <i name="APACO">     10.00000000</i>
  </separator>
  <separator name="symmetry" >
   <i type="int" name="ISYM">     2</i>
   <i name="SYMPREC">      0.00001000</i>
  </separator>
  <separator name="dos" >
   <i type="int" name="LORBIT">     0</i>
   <v name="RWIGS">     -1.00000000     -1.00000000     -1.00000000     -1.00000000</v>
   <i type="int" name="NEDOS">   301</i>
   <i name="EMIN">     10.00000000</i>
   <i name="EMAX">    -10.00000000</i>
   <i name="EFERMI">      0.00000000</i>
  </separator>
  <separator name="writing" >
   <i type="int" name="NWRITE">     2</i>
   <i type="logical" name="LWAVE"> F  </i>
   <i type="logical" name="LDOWNSAMPLE"> F  </i>
   <i type="logical" name="LCHARG"> F  </i>
   <i type="logical" name="LPARD"> F  </i>
   <i type="logical" name="LVTOT"> F  </i>
   <i type="logical" name="LVHAR"> F  </i>
   <i type="logical" name="LELF"> F  </i>
   <i type="logical" name="LOPTICS"> F  </i>
   <v name="STM">      0.00000000      0.00000000      0.00000000      0.00000000      0.00000000      0.00000000      0.00000000</v>
  </separator>
  <separator name="performance" >
   <i type="int" name="NPAR">     4</i>
   <i type="int" name="NSIM">     4</i>
   <i type="int" name="NBLK">    -1</i>
   <i type="logical" name="LPLANE"> T  </i>
   <i type="logical" name="LSCALAPACK"> T  </i>
   <i type="logical" name="LSCAAWARE"> F  </i>
   <i type="logical" name="LSCALU"> F  </i>
   <i type="logical" name="LASYNC"> F  </i>
   <i type="logical" name="LORBITALREAL"> F  </i>
  </separator>
  <separator name="miscellaneous" >
   <i type="int" name="IDIOT">     3</i>
   <i type="int" name="PHON_NSTRUCT">    -1</i>
   <i type="logical" name="LMUSIC"> F  </i>
   <v name="POMASS">    208.98000000     78.96000000     16.00000000     32.06600000</v>
   <v name="DARWINR">      0.00000000      0.00000000      0.00000000      0.00000000</v>
   <v name="DARWINV">      1.00000000      1.00000000      1.00000000      1.00000000</v>
   <i type="logical" name="LCORR"> T  </i>
  </separator>
  <i type="logical" name="GGA_COMPAT"> T  </i>
  <i type="logical" name="LBERRY"> F  </i>
  <i type="int" name="ICORELEVEL">     0</i>
  <i type="logical" name="LDAU"> F  </i>
  <i type="int" name="I_CONSTRAINED_M">     0</i>
  <separator name="electronic exchange-correlation" >
   <i type="string" name="GGA    ">PE</i>
   <i type="string" name="XC_C">1</i>
   <i type="int" name="VOSKOWN">     0</i>
   <i type="logical" name="LHFCALC"> F  </i>
   <i type="string" name="PRECFOCK"></i>
   <i type="logical" name="LSYMGRAD"> F  </i>
   <i type="logical" name="LHFONE"> F  </i>
   <i type="logical" name="LRHFCALC"> F  </i>
   <i type="logical" name="LTHOMAS"> F  </i>
   <i type="logical" name="LMODELHF"> F  </i>
   <i type="logical" name="LFOCKACE"> F  </i>
   <i name="ENCUT4O">     -1.00000000</i>
   <i type="int" name="EXXOEP">     0</i>
   <i type="int" name="FOURORBIT">     0</i>
   <i name="AEXX">      0.00000000</i>
   <i name="HFALPHA">      0.00000000</i>
   <i name="MCALPHA">      0.00000000</i>
   <i name="ALDAX">      1.00000000</i>
   <i name="AGGAX">      1.00000000</i>
   <i name="AMGGAX">      1.00000000</i>
   <i name="ALDAC">      1.00000000</i>
   <i name="AGGAC">      1.00000000</i>
   <i name="AMGGAC">      1.00000000</i>
   <i type="int" name="NKREDX">     1</i>
   <i type="int" name="NKREDY">     1</i>
   <i type="int" name="NKREDZ">     1</i>
   <i type="logical" name="SHIFTRED"> F  </i>
   <i type="logical" name="ODDONLY"> F  </i>
   <i type="logical" name="EVENONLY"> F  </i>
   <i type="int" name="LMAXFOCK">     0</i>
   <i type="int" name="NMAXFOCKAE">     0</i>
   <i type="logical" name="LFOCKAEDFT"> F  </i>
   <i name="HFSCREEN">      0.00000000</i>
   <i name="HFSCREENC">      0.00000000</i>
   <i type="int" name="NBANDSGWLOW">     0</i>
  </separator>
  <separator name="vdW DFT" >
   <i type="logical" name="LUSE_VDW"> F  </i>
   <i type="int" name="IVDW_NL">    -1</i>
   <i type="logical" name="LSPIN_VDW"> F  </i>
   <i name="ZAB_VDW">     -0.84910000</i>
   <i name="GAMMA_VDW">      1.39626340</i>
   <i name="ALPHA_VDW">      0.00000000</i>
   <i name="PARAM1">      0.12340000</i>
   <i name="PARAM2">      1.00000000</i>
   <i name="BPARAM">      6.30000000</i>
   <i name="CPARAM">      0.00930000</i>
  </separator>
  <separator name="model GW" >
   <i type="int" name="MODEL_GW">     0</i>
   <i name="MODEL_EPS0">     12.28505620</i>
   <i name="MODEL_ALPHA">      1.00000000</i>
  </separator>
  <separator name="linear response parameters" >
   <i type="logical" name="LEPSILON"> F  </i>
   <i type="logical" name="LRPA"> F  </i>
   <i type="logical" name="LNABLA"> F  </i>
   <i type="logical" name="LVEL"> F  </i>
   <i name="CSHIFT">      0.10000000</i>
   <i name="OMEGAMAX">     -1.00000000</i>
   <i name="DEG_THRESHOLD">      0.00200000</i>
   <i name="RTIME">     -0.10000000</i>
   <i name="WPLASMAI">      0.00000000</i>
   <v name="DFIELD">      0.00000000      0.00000000      0.00000000</v>
   <v name="WPLASMA">      0.00000000      0.00000000      0.00000000      0.00000000      0.00000000      0.00000000      0.00000000      0.00000000      0.00000000</v>
  </separator>
  <separator name="orbital magnetization" >
   <i type="logical" name="NUCIND"> F  </i>
   <v name="MAGPOS">      0.00000000      0.00000000      0.00000000</v>
   <i type="logical" name="LNICSALL"> T  </i>
   <i type="logical" name="ORBITALMAG"> F  </i>
   <i type="logical" name="LMAGBLOCH"> F  </i>
   <i type="logical" name="LCHIMAG"> F  </i>
   <i type="logical" name="LGAUGE"> T  </i>
   <i type="int" name="MAGATOM">     0</i>
   <v name="MAGDIPOL">      0.00000000      0.00000000      0.00000000</v>
   <v name="AVECCONST">      0.00000000      0.00000000      0.00000000</v>
  </separator>
  <separator name="response functions" >
   <i type="logical" name="LALL_IN_ONE"> F  </i>
   <i type="int" name="IALL_IN_ONE">    -1</i>
   <i type="int" name="NBANDS_WAVE">    -1</i>
   <i type="logical" name="LFINITE_TEMPERATURE"> F  </i>
   <i type="logical" name="LADDER"> F  </i>
   <i type="logical" name="LRPAFORCE"> F  </i>
   <i type="logical" name="LFXC"> F  </i>
   <i type="logical" name="LHARTREE"> T  </i>
   <i type="int" name="IBSE">     0</i>
   <v type="int" name="KPOINT">    -1     0     0     0</v>
   <i type="logical" name="LTCTC"> F  </i>
   <i type="logical" name="LTCTE"> F  </i>
   <i type="logical" name="LTETE"> F  </i>
   <i type="logical" name="LTRIPLET"> F  </i>
   <i type="logical" name="LFXCEPS"> F  </i>
   <i type="logical" name="LFXHEG"> F  </i>
   <i type="int" name="NATURALO">     2</i>
   <i type="logical" name="LHOLEGF"> F  </i>
   <i type="logical" name="L2ORDER"> F  </i>
   <i type="logical" name="LDMP1"> F  </i>
   <i type="logical" name="LMP2LT"> F  </i>
   <i type="logical" name="LSMP2LT"> F  </i>
   <i type="logical" name="LGWLF"> F  </i>
   <i name="ENCUTGW">     -1.60000002</i>
   <i name="ENCUTGWSOFT">     -1.60000002</i>
   <i name="ENCUTLF">     -1.00000000</i>
   <i type="logical" name="ESF_SPLINES"> F  </i>
   <i name="ESF_CONV">      0.01000000</i>
   <i type="int" name="ESF_NINTER">    15</i>
   <i type="int" name="LMAXMP2">    -1</i>
   <i name="SCISSOR">      0.00000000</i>
   <i type="int" name="NOMEGA">     0</i>
   <i type="int" name="NOMEGAR">     0</i>
   <i type="int" name="NBANDSGW">    -1</i>
   <i type="int" name="NBANDSO">    -1</i>
   <i type="int" name="NBANDSV">    -1</i>
   <i type="int" name="NELMGW">     1</i>
   <i type="int" name="NELMHF">     1</i>
   <i type="int" name="DIM">     3</i>
   <i type="int" name="IESPILON">     4</i>
   <i type="int" name="ANTIRES">     0</i>
   <i name="OMEGAMAX">    -30.00000000</i>
   <i name="OMEGAMIN">    -30.00000000</i>
   <i name="OMEGATL">   -200.00000000</i>
   <i type="int" name="OMEGAGRID">     0</i>
   <i name="CSHIFT">     -0.10000000</i>
   <i type="logical" name="LSELFENERGY"> F  </i>
   <i type="logical" name="LSPECTRAL"> F  </i>
   <i type="logical" name="LSPECTRALGW"> F  </i>
   <i type="logical" name="LSINGLES"> F  </i>
   <i type="logical" name="LFERMIGW"> F  </i>
   <i type="logical" name="ODDONLYGW"> F  </i>
   <i type="logical" name="EVENONLYGW"> F  </i>
   <i type="int" name="NKREDLFX">     1</i>
   <i type="int" name="NKREDLFY">     1</i>
   <i type="int" name="NKREDLFZ">     1</i>
   <i type="int" name="MAXMEM">  2800</i>
   <i type="int" name="TELESCOPE">     0</i>
   <i type="int" name="NTAUPAR">    -1</i>
   <i type="int" name="NOMEGAPAR">    -1</i>
   <i name="DAMP_NEWTON">      0.80000001</i>
   <i name="LAMBDA">      1.00000000</i>
  </separator>
  <separator name="External order field" >
   <i name="OFIELD_KAPPA">      0.00000000</i>
   <v name="OFIELD_K">      0.00000000      0.00000000      0.00000000</v>
   <i name="OFIELD_Q6_NEAR">      0.00000000</i>
   <i name="OFIELD_Q6_FAR">      0.00000000</i>
   <i name="OFIELD_A">      0.00000000</i>
  </separator>
  <separator name="optional k-points parameters" >
   <i type="int" name="KPOINTS_OPT_MODE">     1</i>
   <i type="logical" name="LKPOINTS_OPT"> F  </i>
  </separator>
 </parameters>
 <atominfo>
  <atoms>      40 </atoms>
  <types>       4 </types>
  <array name="atoms" >
   <dimension dim="1">ion</dimension>
   <field type="string">element</field>
   <field type="int">atomtype</field>
   <set>
    <rc><c>Bi</c><c>   1</c></rc>
    <rc><c>Bi</c><c>   1</c></rc>
    <rc><c>Bi</c><c>   1</c></rc>
    <rc><c>Bi</c><c>   1</c></rc>
    <rc><c>Bi</c><c>   1</c></rc>
    <rc><c>Bi</c><c>   1</c></rc>
    <rc><c>Bi</c><c>   1</c></rc>
    <rc><c>Bi</c><c>   1</c></rc>
    <rc><c>Bi</c><c>   1</c></rc>
    <rc><c>Bi</c><c>   1</c></rc>
    <rc><c>Bi</c><c>   1</c></rc>
    <rc><c>Bi</c><c>   1</c></rc>
    <rc><c>Bi</c><c>   1</c></rc>
    <rc><c>Bi</c><c>   1</c></rc>
    <rc><c>Bi</c><c>   1</c></rc>
    <rc><c>Bi</c><c>   1</c></rc>
    <rc><c>Se</c><c>   2</c></rc>
    <rc><c>Se</c><c>   2</c></rc>
    <rc><c>Se</c><c>   2</c></rc>
    <rc><c>Se</c><c>   2</c></rc>
    <rc><c>Se</c><c>   2</c></rc>
    <rc><c>Se</c><c>   2</c></rc>
    <rc><c>Se</c><c>   2</c></rc>
    <rc><c>O </c><c>   3</c></rc>
    <rc><c>O </c><c>   3</c></rc>
    <rc><c>O </c><c>   3</c></rc>
    <rc><c>O </c><c>   3</c></rc>
    <rc><c>O </c><c>   3</c></rc>
    <rc><c>O </c><c>   3</c></rc>
    <rc><c>O </c><c>   3</c></rc>
    <rc><c>O </c><c>   3</c></rc>
    <rc><c>O </c><c>   3</c></rc>
    <rc><c>O </c><c>   3</c></rc>
    <rc><c>O </c><c>   3</c></rc>
    <rc><c>O </c><c>   3</c></rc>
    <rc><c>O </c><c>   3</c></rc>
    <rc><c>O </c><c>   3</c></rc>
    <rc><c>O </c><c>   3</c></rc>
    <rc><c>O </c><c>   3</c></rc>
    <rc><c>S </c><c>   4</c></rc>
   </set>
  </array>
  <array name="atomtypes" >
   <dimension dim="1">type</dimension>
   <field type="int">atomspertype</field>
   <field type="string">element</field>
   <field>mass</field>
   <field>valence</field>
   <field type="string">pseudopotential</field>
   <set>
    <rc><c>  16</c><c>Bi</c><c>    208.98000000</c><c>     15.00000000</c><c>  PAW_PBE Bi_d 06Sep2000                </c></rc>
    <rc><c>   7</c><c>Se</c><c>     78.96000000</c><c>      6.00000000</c><c>  PAW_PBE Se 06Sep2000                  </c></rc>
    <rc><c>  16</c><c>O </c><c>     16.00000000</c><c>      6.00000000</c><c>  PAW_PBE O 08Apr2002                   </c></rc>
    <rc><c>   1</c><c>S </c><c>     32.06600000</c><c>      6.00000000</c><c>  PAW_PBE S 06Sep2000                   </c></rc>
   </set>
  </array>
 </atominfo>
 <structure name="initialpos" >
  <crystal>
   <varray name="basis" >
    <v>       8.03616302       0.00000000       0.00000000 </v>
    <v>       0.00000000       8.03616302       0.00000000 </v>
    <v>       0.00000000       0.00000000      12.68201935 </v>
   </varray>
   <i name="volume">    819.00374650 </i>
   <varray name="rec_basis" >
    <v>       0.12443750       0.00000000       0.00000000 </v>
    <v>       0.00000000       0.12443750       0.00000000 </v>
    <v>       0.00000000       0.00000000       0.07885180 </v>
   </varray>
  </crystal>
  <varray name="positions" >
   <v>       0.24897953       0.24897953       0.85057427 </v>
   <v>       0.75102047       0.24897953       0.85057427 </v>
   <v>       0.24897953       0.75102047       0.85057427 </v>
   <v>       0.75102047       0.75102047       0.85057427 </v>
   <v>       0.00000000       0.00000000       0.65019854 </v>
   <v>       0.50000000       0.00000000       0.65124784 </v>
   <v>       0.00000000       0.50000000       0.65124784 </v>
   <v>       0.50000000       0.50000000       0.65240747 </v>
   <v>       0.00000000       0.00000000       0.34980146 </v>
   <v>       0.50000000       0.00000000       0.34875216 </v>
   <v>       0.00000000       0.50000000       0.34875216 </v>
   <v>       0.50000000       0.50000000       0.34759253 </v>
   <v>       0.24897953       0.24897953       0.14942573 </v>
   <v>       0.75102047       0.24897953       0.14942573 </v>
   <v>       0.24897953       0.75102047       0.14942573 </v>
   <v>       0.75102047       0.75102047       0.14942573 </v>
   <v>       0.50000000       0.00000000       0.00000000 </v>
   <v>       0.00000000       0.50000000       0.00000000 </v>
   <v>       0.50000000       0.50000000       0.00000000 </v>
   <v>       0.24922273       0.24922273       0.50000000 </v>
   <v>       0.75077727       0.24922273       0.50000000 </v>
   <v>       0.24922273       0.75077727       0.50000000 </v>
   <v>       0.75077727       0.75077727       0.50000000 </v>
   <v>       0.00000000       0.24979065       0.75068560 </v>
   <v>       0.50000000       0.24992516       0.75120115 </v>
   <v>       0.00000000       0.75020935       0.75068560 </v>
   <v>       0.50000000       0.75007484       0.75120115 </v>
   <v>       0.24979065       0.00000000       0.75068560 </v>
   <v>       0.75020935       0.00000000       0.75068560 </v>
   <v>       0.24992516       0.50000000       0.75120115 </v>
   <v>       0.75007484       0.50000000       0.75120115 </v>
   <v>       0.24979065       0.00000000       0.24931440 </v>
   <v>       0.75020935       0.00000000       0.24931440 </v>
   <v>       0.24992516       0.50000000       0.24879885 </v>
   <v>       0.75007484       0.50000000       0.24879885 </v>
   <v>       0.00000000       0.24979065       0.24931440 </v>
   <v>       0.50000000       0.24992516       0.24879885 </v>
   <v>       0.00000000       0.75020935       0.24931440 </v>
   <v>       0.50000000       0.75007484       0.24879885 </v>
   <v>       0.00000000       0.00000000       0.00000000 </v>
  </varray>
 </structure>
 <calculation>
  <scstep>
   <time name="dav">   34.10   34.11</time>
   <time name="total">   34.91   34.92</time>
   <energy>
    <i name="alphaZ">   1233.39627715 </i>
    <i name="ewald"> -28377.81960260 </i>
    <i name="hartreedc"> -12079.25252835 </i>
    <i name="XCdc">   1228.24637133 </i>
    <i name="pawpsdc">  34040.00696010 </i>
    <i name="pawaedc"> -33495.80632930 </i>
    <i name="eentropy">     -0.00117620 </i>
    <i name="bandstr">   2549.51080391 </i>
    <i name="atom">  40341.65184589 </i>
    <i name="e_fr_energy">   5439.93262195 </i>
    <i name="e_wo_entrp">   5439.93379814 </i>
    <i name="e_0_energy">   5439.93321005 </i>
   </energy>
  </scstep>
  <scstep>
   <time name="dav">   34.21   34.22</time>
   <time name="total">   34.21   34.22</time>
   <energy>
    <i name="e_fr_energy">    897.38898301 </i>
    <i name="e_wo_entrp">    897.39840340 </i>
    <i name="e_0_energy">    897.39369321 </i>
   </energy>
  </scstep>
  <scstep>
   <time name="dav">   36.98   36.99</time>
   <time name="total">   36.98   36.99</time>
   <energy>
    <i name="e_fr_energy">   -119.68960559 </i>
    <i name="e_wo_entrp">   -119.68960552 </i>
    <i name="e_0_energy">   -119.68960556 </i>
   </energy>
  </scstep>
  <scstep>
   <time name="dav">   38.43   38.43</time>
   <time name="total">   38.43   38.43</time>
   <energy>
    <i name="e_fr_energy">   -237.99295708 </i>
    <i name="e_wo_entrp">   -237.99295708 </i>
    <i name="e_0_energy">   -237.99295708 </i>
   </energy>
  </scstep>
  <scstep>
   <time name="dav">   39.56   39.59</time>
   <time name="total">   40.77   40.80</time>
   <energy>
    <i name="e_fr_energy">   -243.65447798 </i>
    <i name="e_wo_entrp">   -243.65447798 </i>
    <i name="e_0_energy">   -243.65447798 </i>
   </energy>
  </scstep>
  <scstep>
   <time name="dav">   42.55   42.57</time>
   <time name="total">   44.58   44.60</time>
   <energy>
    <i name="e_fr_energy">   -208.61234486 </i>
    <i name="e_wo_entrp">   -208.61234486 </i>
    <i name="e_0_energy">   -208.61234486 </i>
   </energy>
  </scstep>
  <scstep>
   <time name="dav">   36.82   36.84</time>
   <time name="total">   38.85   38.87</time>
   <energy>
    <i name="e_fr_energy">   -207.85841481 </i>
    <i name="e_wo_entrp">   -207.85830622 </i>
    <i name="e_0_energy">   -207.85836052 </i>
   </energy>
  </scstep>
  <scstep>
   <time name="dav">   42.82   42.84</time>
   <time name="total">   44.85   44.87</time>
   <energy>
    <i name="e_fr_energy">   -208.01567117 </i>
    <i name="e_wo_entrp">   -208.01479271 </i>
    <i name="e_0_energy">   -208.01523194 </i>
   </energy>
  </scstep>
  <scstep>
   <time name="dav">   41.96   41.98</time>
   <time name="total">   43.99   44.01</time>
   <energy>
    <i name="e_fr_energy">   -207.96050927 </i>
    <i name="e_wo_entrp">   -207.96039566 </i>
    <i name="e_0_energy">   -207.96045246 </i>
   </energy>
  </scstep>
  <scstep>
   <time name="dav">   40.81   40.81</time>
   <time name="total">   42.84   42.84</time>
   <energy>
    <i name="e_fr_energy">   -207.94335089 </i>
    <i name="e_wo_entrp">   -207.94296067 </i>
    <i name="e_0_energy">   -207.94315578 </i>
   </energy>
  </scstep>
  <scstep>
   <time name="dav">   42.20   42.20</time>
   <time name="total">   44.23   44.23</time>
   <energy>
    <i name="e_fr_energy">   -207.94581044 </i>
    <i name="e_wo_entrp">   -207.94543064 </i>
    <i name="e_0_energy">   -207.94562054 </i>
   </energy>
  </scstep>
  <scstep>
   <time name="dav">   42.46   42.46</time>
   <time name="total">   44.49   44.49</time>
   <energy>
    <i name="e_fr_energy">   -207.94715732 </i>
    <i name="e_wo_entrp">   -207.94680924 </i>
    <i name="e_0_energy">   -207.94698328 </i>
   </energy>
  </scstep>
  <scstep>
   <time name="dav">   37.98   37.98</time>
   <time name="total">   40.02   40.02</time>
   <energy>
    <i name="e_fr_energy">   -207.94717107 </i>
    <i name="e_wo_entrp">   -207.94682480 </i>
    <i name="e_0_energy">   -207.94699794 </i>
   </energy>
  </scstep>
  <scstep>
   <time name="dav">   39.47   39.47</time>
   <time name="total">   41.51   41.51</time>
   <energy>
    <i name="e_fr_energy">   -207.94708557 </i>
    <i name="e_wo_entrp">   -207.94673426 </i>
    <i name="e_0_energy">   -207.94690992 </i>
   </energy>
  </scstep>
  <scstep>
   <time name="dav">   45.39   45.41</time>
   <time name="total">   47.42   47.44</time>
   <energy>
    <i name="e_fr_energy">   -207.94706543 </i>
    <i name="e_wo_entrp">   -207.94670963 </i>
    <i name="e_0_energy">   -207.94688753 </i>
   </energy>
  </scstep>
  <scstep>
   <time name="dav">   38.77   38.77</time>
   <time name="total">   40.80   40.80</time>
   <energy>
    <i name="e_fr_energy">   -207.94706044 </i>
    <i name="e_wo_entrp">   -207.94670243 </i>
    <i name="e_0_energy">   -207.94688144 </i>
   </energy>
  </scstep>
  <scstep>
   <time name="dav">   42.93   42.93</time>
   <time name="total">   44.96   44.96</time>
   <energy>
    <i name="e_fr_energy">   -207.94705830 </i>
    <i name="e_wo_entrp">   -207.94669832 </i>
    <i name="e_0_energy">   -207.94687831 </i>
   </energy>
  </scstep>
  <scstep>
   <time name="dav">   36.92   36.92</time>
   <time name="total">   38.95   38.95</time>
   <energy>
    <i name="e_fr_energy">   -207.94705847 </i>
    <i name="e_wo_entrp">   -207.94669914 </i>
    <i name="e_0_energy">   -207.94687881 </i>
   </energy>
  </scstep>
  <scstep>
   <time name="dav">   36.48   36.48</time>
   <time name="total">   38.52   38.52</time>
   <energy>
    <i name="e_fr_energy">   -207.94705867 </i>
    <i name="e_wo_entrp">   -207.94669923 </i>
    <i name="e_0_energy">   -207.94687895 </i>
   </energy>
  </scstep>
  <scstep>
   <time name="dav">   29.07   29.07</time>
   <time name="total">   31.10   31.10</time>
   <energy>
    <i name="e_fr_energy">   -207.94705868 </i>
    <i name="e_wo_entrp">   -207.94669913 </i>
    <i name="e_0_energy">   -207.94687890 </i>
   </energy>
  </scstep>
  <scstep>
   <time name="dav">   26.12   26.13</time>
   <time name="total">   26.93   26.94</time>
   <energy>
    <i name="alphaZ">   1233.39627715 </i>
    <i name="ewald"> -28377.81960260 </i>
    <i name="hartreedc"> -12222.44333966 </i>
    <i name="XCdc">   1244.72504634 </i>
    <i name="pawpsdc">  35736.37255238 </i>
    <i name="pawaedc"> -35127.24723242 </i>
    <i name="eentropy">     -0.00035950 </i>
    <i name="bandstr">  -3036.58224627 </i>
    <i name="atom">  40341.65184589 </i>
    <i name="e_fr_energy">   -207.94705869 </i>
    <i name="e_wo_entrp">   -207.94669919 </i>
    <i name="e_0_energy">   -207.94687894 </i>
   </energy>
  </scstep>
  <structure>
   <crystal>
    <varray name="basis" >
     <v>       8.03616302       0.00000000       0.00000000 </v>
     <v>       0.00000000       8.03616302       0.00000000 </v>
     <v>       0.00000000       0.00000000      12.68201935 </v>
    </varray>
    <i name="volume">    819.00374650 </i>
    <varray name="rec_basis" >
     <v>       0.12443750       0.00000000       0.00000000 </v>
     <v>       0.00000000       0.12443750       0.00000000 </v>
     <v>       0.00000000       0.00000000       0.07885180 </v>
    </varray>
   </crystal>
   <varray name="positions" >
    <v>       0.24897953       0.24897953       0.85057427 </v>
    <v>       0.75102047       0.24897953       0.85057427 </v>
    <v>       0.24897953       0.75102047       0.85057427 </v>
    <v>       0.75102047       0.75102047       0.85057427 </v>
    <v>       0.00000000       0.00000000       0.65019854 </v>
    <v>       0.50000000       0.00000000       0.65124784 </v>
    <v>       0.00000000       0.50000000       0.65124784 </v>
    <v>       0.50000000       0.50000000       0.65240747 </v>
    <v>       0.00000000       0.00000000       0.34980146 </v>
    <v>       0.50000000       0.00000000       0.34875216 </v>
    <v>       0.00000000       0.50000000       0.34875216 </v>
    <v>       0.50000000       0.50000000       0.34759253 </v>
    <v>       0.24897953       0.24897953       0.14942573 </v>
    <v>       0.75102047       0.24897953       0.14942573 </v>
    <v>       0.24897953       0.75102047       0.14942573 </v>
    <v>       0.75102047       0.75102047       0.14942573 </v>
    <v>       0.50000000       0.00000000       0.00000000 </v>
    <v>       0.00000000       0.50000000       0.00000000 </v>
    <v>       0.50000000       0.50000000       0.00000000 </v>
    <v>       0.24922273       0.24922273       0.50000000 </v>
    <v>       0.75077727       0.24922273       0.50000000 </v>
    <v>       0.24922273       0.75077727       0.50000000 </v>
    <v>       0.75077727       0.75077727       0.50000000 </v>
    <v>       0.00000000       0.24979065       0.75068560 </v>
    <v>       0.50000000       0.24992516       0.75120115 </v>
    <v>       0.00000000       0.75020935       0.75068560 </v>
    <v>       0.50000000       0.75007484       0.75120115 </v>
    <v>       0.24979065       0.00000000       0.75068560 </v>
    <v>       0.75020935       0.00000000       0.75068560 </v>
    <v>       0.24992516       0.50000000       0.75120115 </v>
    <v>       0.75007484       0.50000000       0.75120115 </v>
    <v>       0.24979065       0.00000000       0.24931440 </v>
    <v>       0.75020935       0.00000000       0.24931440 </v>
    <v>       0.24992516       0.50000000       0.24879885 </v>
    <v>       0.75007484       0.50000000       0.24879885 </v>
    <v>       0.00000000       0.24979065       0.24931440 </v>
    <v>       0.50000000       0.24992516       0.24879885 </v>
    <v>       0.00000000       0.75020935       0.24931440 </v>
    <v>       0.50000000       0.75007484       0.24879885 </v>
    <v>       0.00000000       0.00000000       0.00000000 </v>
   </varray>
  </structure>
  <varray name="forces" >
   <v>      -0.00000546      -0.00000546      -0.00000005 </v>
   <v>       0.00000546      -0.00000546      -0.00000005 </v>
   <v>      -0.00000546       0.00000546      -0.00000005 </v>
   <v>       0.00000546       0.00000546      -0.00000005 </v>
   <v>       0.00000000      -0.00000000      -0.00001804 </v>
   <v>       0.00000000      -0.00000000       0.00000777 </v>
   <v>      -0.00000000       0.00000000       0.00000777 </v>
   <v>      -0.00000000      -0.00000000       0.00003278 </v>
   <v>      -0.00000000      -0.00000000       0.00001804 </v>
   <v>      -0.00000000      -0.00000000      -0.00000777 </v>
   <v>       0.00000000       0.00000000      -0.00000777 </v>
   <v>       0.00000000      -0.00000000      -0.00003278 </v>
   <v>      -0.00000546      -0.00000546       0.00000005 </v>
   <v>       0.00000546      -0.00000546       0.00000005 </v>
   <v>      -0.00000546       0.00000546       0.00000005 </v>
   <v>       0.00000546       0.00000546       0.00000005 </v>
   <v>      -0.00000000       0.00000000      -0.00000000 </v>
   <v>      -0.00000000       0.00000000      -0.00000000 </v>
   <v>       0.00000000       0.00000000      -0.00000000 </v>
   <v>      -0.00000284      -0.00000284      -0.00000000 </v>
   <v>       0.00000284      -0.00000284      -0.00000000 </v>
   <v>      -0.00000284       0.00000284      -0.00000000 </v>
   <v>       0.00000284       0.00000284      -0.00000000 </v>
   <v>      -0.00000000       0.00000486       0.00000408 </v>
   <v>      -0.00000000       0.00000558      -0.00000542 </v>
   <v>      -0.00000000      -0.00000486       0.00000408 </v>
   <v>      -0.00000000      -0.00000558      -0.00000542 </v>
   <v>       0.00000486      -0.00000000       0.00000408 </v>
   <v>      -0.00000486       0.00000000       0.00000408 </v>
   <v>       0.00000558      -0.00000000      -0.00000542 </v>
   <v>      -0.00000558      -0.00000000      -0.00000542 </v>
   <v>       0.00000486       0.00000000      -0.00000408 </v>
   <v>      -0.00000486      -0.00000000      -0.00000408 </v>
   <v>       0.00000558       0.00000000       0.00000542 </v>
   <v>      -0.00000558      -0.00000000       0.00000542 </v>
   <v>      -0.00000000       0.00000486      -0.00000408 </v>
   <v>      -0.00000000       0.00000558       0.00000542 </v>
   <v>       0.00000000      -0.00000486      -0.00000408 </v>
   <v>       0.00000000      -0.00000558       0.00000542 </v>
   <v>      -0.00000000      -0.00000000      -0.00000000 </v>
  </varray>
  <varray name="stress" >
   <v>     -53.58530875       0.00000000      -0.00000000 </v>
   <v>       0.00000000     -53.58530875       0.00000000 </v>
   <v>       0.00000000       0.00000000     -39.83890586 </v>
  </varray>
  <energy>
   <i name="e_fr_energy">   -207.94705869 </i>
   <i name="e_wo_entrp">   -207.94669919 </i>
   <i name="e_0_energy">   -207.94687894 </i>
  </energy>
  <time name="totalsc">  873.22  873.42</time>
 </calculation>
 <calculation>
  <scstep>
   <time name="dav">   32.80   32.80</time>
   <time name="total">   34.84   34.84</time>
   <energy>
    <i name="alphaZ">   1233.39627715 </i>
    <i name="ewald"> -28377.81812125 </i>
    <i name="hartreedc"> -12222.44615125 </i>
    <i name="XCdc">   1244.72516403 </i>
    <i name="pawpsdc">  35736.38795154 </i>
    <i name="pawaedc"> -35127.26272316 </i>
    <i name="eentropy">     -0.00035945 </i>
    <i name="bandstr">  -3036.58094222 </i>
    <i name="atom">  40341.65184589 </i>
    <i name="e_fr_energy">   -207.94705871 </i>
    <i name="e_wo_entrp">   -207.94669926 </i>
    <i name="e_0_energy">   -207.94687898 </i>
   </energy>
  </scstep>
  <scstep>
   <time name="dav">   24.78   24.79</time>
   <time name="total">   26.82   26.83</time>
   <energy>
    <i name="e_fr_energy">   -207.94705871 </i>
    <i name="e_wo_entrp">   -207.94669926 </i>
    <i name="e_0_energy">   -207.94687898 </i>
   </energy>
  </scstep>
  <scstep>
   <time name="dav">   24.70   24.71</time>
   <time name="total">   26.73   26.74</time>
   <energy>
    <i name="e_fr_energy">   -207.94705871 </i>
    <i name="e_wo_entrp">   -207.94669926 </i>
    <i name="e_0_energy">   -207.94687899 </i>
   </energy>
  </scstep>
  <scstep>
   <time name="dav">   24.68   24.68</time>
   <time name="total">   26.72   26.72</time>
   <energy>
    <i name="e_fr_energy">   -207.94705871 </i>
    <i name="e_wo_entrp">   -207.94669926 </i>
    <i name="e_0_energy">   -207.94687898 </i>
   </energy>
  </scstep>
  <scstep>
   <time name="dav">   24.69   24.69</time>
   <time name="total">   25.49   25.49</time>
   <energy>
    <i name="alphaZ">   1233.39627715 </i>
    <i name="ewald"> -28377.81812125 </i>
    <i name="hartreedc"> -12222.44608976 </i>
    <i name="XCdc">   1244.72515488 </i>
    <i name="pawpsdc">  35736.39104166 </i>
    <i name="pawaedc"> -35127.26574719 </i>
    <i name="eentropy">     -0.00035946 </i>
    <i name="bandstr">  -3036.58106064 </i>
    <i name="atom">  40341.65184589 </i>
    <i name="e_fr_energy">   -207.94705871 </i>
    <i name="e_wo_entrp">   -207.94669925 </i>
    <i name="e_0_energy">   -207.94687898 </i>
   </energy>
  </scstep>
  <structure>
   <crystal>
    <varray name="basis" >
     <v>       8.03616302       0.00000000       0.00000000 </v>
     <v>       0.00000000       8.03616302       0.00000000 </v>
     <v>       0.00000000       0.00000000      12.68201935 </v>
    </varray>
    <i name="volume">    819.00374650 </i>
    <varray name="rec_basis" >
     <v>       0.12443750       0.00000000       0.00000000 </v>
     <v>       0.00000000       0.12443750       0.00000000 </v>
     <v>       0.00000000       0.00000000       0.07885180 </v>
    </varray>
   </crystal>
   <varray name="positions" >
    <v>       0.24897950       0.24897950       0.85057427 </v>
    <v>       0.75102050       0.24897950       0.85057427 </v>
    <v>       0.24897950       0.75102050       0.85057427 </v>
    <v>       0.75102050       0.75102050       0.85057427 </v>
    <v>       0.00000000       1.00000000       0.65019847 </v>
    <v>       0.50000000       1.00000000       0.65124787 </v>
    <v>       1.00000000       0.50000000       0.65124787 </v>
    <v>       0.50000000       0.50000000       0.65240759 </v>
    <v>       1.00000000       1.00000000       0.34980153 </v>
    <v>       0.50000000       1.00000000       0.34875213 </v>
    <v>       0.00000000       0.50000000       0.34875213 </v>
    <v>       0.50000000       0.50000000       0.34759241 </v>
    <v>       0.24897950       0.24897950       0.14942573 </v>
    <v>       0.75102050       0.24897950       0.14942573 </v>
    <v>       0.24897950       0.75102050       0.14942573 </v>
    <v>       0.75102050       0.75102050       0.14942573 </v>
    <v>       0.50000000       0.00000000       1.00000000 </v>
    <v>       1.00000000       0.50000000       1.00000000 </v>
    <v>       0.50000000       0.50000000       1.00000000 </v>
    <v>       0.24922272       0.24922272       0.50000000 </v>
    <v>       0.75077728       0.24922272       0.50000000 </v>
    <v>       0.24922272       0.75077728       0.50000000 </v>
    <v>       0.75077728       0.75077728       0.50000000 </v>
    <v>       1.00000000       0.24979068       0.75068561 </v>
    <v>       0.50000000       0.24992519       0.75120112 </v>
    <v>       1.00000000       0.75020932       0.75068561 </v>
    <v>       0.50000000       0.75007481       0.75120112 </v>
    <v>       0.24979068       1.00000000       0.75068561 </v>
    <v>       0.75020932       0.00000000       0.75068561 </v>
    <v>       0.24992519       0.50000000       0.75120112 </v>
    <v>       0.75007481       0.50000000       0.75120112 </v>
    <v>       0.24979068       0.00000000       0.24931439 </v>
    <v>       0.75020932       1.00000000       0.24931439 </v>
    <v>       0.24992519       0.50000000       0.24879888 </v>
    <v>       0.75007481       0.50000000       0.24879888 </v>
    <v>       1.00000000       0.24979068       0.24931439 </v>
    <v>       0.50000000       0.24992519       0.24879888 </v>
    <v>       0.00000000       0.75020932       0.24931439 </v>
    <v>       0.50000000       0.75007481       0.24879888 </v>
    <v>       1.00000000       1.00000000       1.00000000 </v>
   </varray>
  </structure>
  <varray name="forces" >
   <v>       0.00000349       0.00000349       0.00000117 </v>
   <v>      -0.00000349       0.00000349       0.00000117 </v>
   <v>       0.00000349      -0.00000349       0.00000117 </v>
   <v>      -0.00000349      -0.00000349       0.00000117 </v>
   <v>      -0.00000000      -0.00000000       0.00000499 </v>
   <v>       0.00000000      -0.00000000      -0.00001396 </v>
   <v>       0.00000000      -0.00000000      -0.00001396 </v>
   <v>      -0.00000000       0.00000000      -0.00002773 </v>
   <v>       0.00000000      -0.00000000      -0.00000499 </v>
   <v>      -0.00000000      -0.00000000       0.00001396 </v>
   <v>      -0.00000000      -0.00000000       0.00001396 </v>
   <v>      -0.00000000      -0.00000000       0.00002773 </v>
   <v>       0.00000349       0.00000349      -0.00000117 </v>
   <v>      -0.00000349       0.00000349      -0.00000117 </v>
   <v>       0.00000349      -0.00000349      -0.00000117 </v>
   <v>      -0.00000349      -0.00000349      -0.00000117 </v>
   <v>      -0.00000000       0.00000000       0.00000000 </v>
   <v>      -0.00000000      -0.00000000       0.00000000 </v>
   <v>      -0.00000000       0.00000000       0.00000000 </v>
   <v>      -0.00000571      -0.00000571       0.00000000 </v>
   <v>       0.00000571      -0.00000571       0.00000000 </v>
   <v>      -0.00000571       0.00000571       0.00000000 </v>
   <v>       0.00000571       0.00000571       0.00000000 </v>
   <v>       0.00000000       0.00000264       0.00000389 </v>
   <v>       0.00000000       0.00000232      -0.00000167 </v>
   <v>       0.00000000      -0.00000264       0.00000389 </v>
   <v>       0.00000000      -0.00000232      -0.00000167 </v>
   <v>       0.00000264      -0.00000000       0.00000389 </v>
   <v>      -0.00000264       0.00000000       0.00000389 </v>
   <v>       0.00000232       0.00000000      -0.00000167 </v>
   <v>      -0.00000232       0.00000000      -0.00000167 </v>
   <v>       0.00000264      -0.00000000      -0.00000389 </v>
   <v>      -0.00000264       0.00000000      -0.00000389 </v>
   <v>       0.00000232       0.00000000       0.00000167 </v>
   <v>      -0.00000232      -0.00000000       0.00000167 </v>
   <v>      -0.00000000       0.00000264      -0.00000389 </v>
   <v>       0.00000000       0.00000232       0.00000167 </v>
   <v>       0.00000000      -0.00000264      -0.00000389 </v>
   <v>      -0.00000000      -0.00000232       0.00000167 </v>
   <v>       0.00000000      -0.00000000       0.00000000 </v>
  </varray>
  <varray name="stress" >
   <v>     -53.58923125       0.00000000       0.00000000 </v>
   <v>       0.00000000     -53.58923125       0.00000000 </v>
   <v>      -0.00000000       0.00000000     -39.84302783 </v>
  </varray>
  <energy>
   <i name="e_fr_energy">   -207.94705871 </i>
   <i name="e_wo_entrp">   -207.94669925 </i>
   <i name="e_0_energy">   -207.94687898 </i>
  </energy>
  <time name="totalsc">  174.49  174.52</time>
 </calculation>
 <calculation>
  <scstep>
   <time name="dav">   25.14   25.14</time>
   <time name="total">   27.18   27.18</time>
   <energy>
    <i name="alphaZ">   1233.39627715 </i>
    <i name="ewald"> -28377.81861611 </i>
    <i name="hartreedc"> -12222.44562646 </i>
    <i name="XCdc">   1244.72515376 </i>
    <i name="pawpsdc">  35736.39089680 </i>
    <i name="pawaedc"> -35127.26559805 </i>
    <i name="eentropy">     -0.00035946 </i>
    <i name="bandstr">  -3036.58103223 </i>
    <i name="atom">  40341.65184589 </i>
    <i name="e_fr_energy">   -207.94705871 </i>
    <i name="e_wo_entrp">   -207.94669925 </i>
    <i name="e_0_energy">   -207.94687898 </i>
   </energy>
  </scstep>
  <scstep>
   <time name="dav">   24.52   24.52</time>
   <time name="total">   26.55   26.55</time>
   <energy>
    <i name="e_fr_energy">   -207.94705871 </i>
    <i name="e_wo_entrp">   -207.94669925 </i>
    <i name="e_0_energy">   -207.94687898 </i>
   </energy>
  </scstep>
  <scstep>
   <time name="dav">   24.47   24.47</time>
   <time name="total">   26.50   26.51</time>
   <energy>
    <i name="e_fr_energy">   -207.94705871 </i>
    <i name="e_wo_entrp">   -207.94669925 </i>
    <i name="e_0_energy">   -207.94687898 </i>
   </energy>
  </scstep>
  <scstep>
   <time name="dav">   24.23   24.23</time>
   <time name="total">   26.26   26.27</time>
   <energy>
    <i name="e_fr_energy">   -207.94705871 </i>
    <i name="e_wo_entrp">   -207.94669925 </i>
    <i name="e_0_energy">   -207.94687898 </i>
   </energy>
  </scstep>
  <scstep>
   <time name="dav">   24.02   24.04</time>
   <time name="total">   24.83   24.84</time>
   <energy>
    <i name="alphaZ">   1233.39627715 </i>
    <i name="ewald"> -28377.81861611 </i>
    <i name="hartreedc"> -12222.44562516 </i>
    <i name="XCdc">   1244.72515315 </i>
    <i name="pawpsdc">  35736.39054426 </i>
    <i name="pawaedc"> -35127.26524693 </i>
    <i name="eentropy">     -0.00035946 </i>
    <i name="bandstr">  -3036.58103150 </i>
    <i name="atom">  40341.65184589 </i>
    <i name="e_fr_energy">   -207.94705871 </i>
    <i name="e_wo_entrp">   -207.94669925 </i>
    <i name="e_0_energy">   -207.94687898 </i>
   </energy>
  </scstep>
  <structure>
   <crystal>
    <varray name="basis" >
     <v>       8.03616302       0.00000000       0.00000000 </v>
     <v>       0.00000000       8.03616302       0.00000000 </v>
     <v>       0.00000000       0.00000000      12.68201935 </v>
    </varray>
    <i name="volume">    819.00374650 </i>
    <varray name="rec_basis" >
     <v>       0.12443750       0.00000000       0.00000000 </v>
     <v>       0.00000000       0.12443750       0.00000000 </v>
     <v>       0.00000000       0.00000000       0.07885180 </v>
    </varray>
   </crystal>
   <varray name="positions" >
    <v>       0.24897951       0.24897951       0.85057427 </v>
    <v>       0.75102049       0.24897951       0.85057427 </v>
    <v>       0.24897951       0.75102049       0.85057427 </v>
    <v>       0.75102049       0.75102049       0.85057427 </v>
    <v>       0.00000000       0.00000000       0.65019849 </v>
    <v>       0.50000000       0.00000000       0.65124786 </v>
    <v>       0.00000000       0.50000000       0.65124786 </v>
    <v>       0.50000000       0.50000000       0.65240755 </v>
    <v>       0.00000000       0.00000000       0.34980151 </v>
    <v>       0.50000000       0.00000000       0.34875214 </v>
    <v>       0.00000000       0.50000000       0.34875214 </v>
    <v>       0.50000000       0.50000000       0.34759245 </v>
    <v>       0.24897951       0.24897951       0.14942573 </v>
    <v>       0.75102049       0.24897951       0.14942573 </v>
    <v>       0.24897951       0.75102049       0.14942573 </v>
    <v>       0.75102049       0.75102049       0.14942573 </v>
    <v>       0.50000000       0.00000000       0.00000000 </v>
    <v>       0.00000000       0.50000000       0.00000000 </v>
    <v>       0.50000000       0.50000000       0.00000000 </v>
    <v>       0.24922272       0.24922272       0.50000000 </v>
    <v>       0.75077728       0.24922272       0.50000000 </v>
    <v>       0.24922272       0.75077728       0.50000000 </v>
    <v>       0.75077728       0.75077728       0.50000000 </v>
    <v>       0.00000000       0.24979067       0.75068561 </v>
    <v>       0.50000000       0.24992518       0.75120113 </v>
    <v>       0.00000000       0.75020933       0.75068561 </v>
    <v>       0.50000000       0.75007482       0.75120113 </v>
    <v>       0.24979067       0.00000000       0.75068561 </v>
    <v>       0.75020933       0.00000000       0.75068561 </v>
    <v>       0.24992518       0.50000000       0.75120113 </v>
    <v>       0.75007482       0.50000000       0.75120113 </v>
    <v>       0.24979067       0.00000000       0.24931439 </v>
    <v>       0.75020933       0.00000000       0.24931439 </v>
    <v>       0.24992518       0.50000000       0.24879887 </v>
    <v>       0.75007482       0.50000000       0.24879887 </v>
    <v>       0.00000000       0.24979067       0.24931439 </v>
    <v>       0.50000000       0.24992518       0.24879887 </v>
    <v>       0.00000000       0.75020933       0.24931439 </v>
    <v>       0.50000000       0.75007482       0.24879887 </v>
    <v>       0.00000000       0.00000000       0.00000000 </v>
   </varray>
  </structure>
  <varray name="forces" >
   <v>      -0.00001137      -0.00001137       0.00000102 </v>
   <v>       0.00001137      -0.00001137       0.00000102 </v>
   <v>      -0.00001137       0.00001137       0.00000102 </v>
   <v>       0.00001137       0.00001137       0.00000102 </v>
   <v>       0.00000000       0.00000000      -0.00003733 </v>
   <v>      -0.00000000       0.00000000       0.00000814 </v>
   <v>       0.00000000       0.00000000       0.00000814 </v>
   <v>      -0.00000000       0.00000000       0.00004847 </v>
   <v>       0.00000000       0.00000000       0.00003733 </v>
   <v>       0.00000000       0.00000000      -0.00000814 </v>
   <v>      -0.00000000       0.00000000      -0.00000814 </v>
   <v>       0.00000000       0.00000000      -0.00004847 </v>
   <v>      -0.00001137      -0.00001137      -0.00000102 </v>
   <v>       0.00001137      -0.00001137      -0.00000102 </v>
   <v>      -0.00001137       0.00001137      -0.00000102 </v>
   <v>       0.00001137       0.00001137      -0.00000102 </v>
   <v>      -0.00000000       0.00000000       0.00000000 </v>
   <v>       0.00000000       0.00000000       0.00000000 </v>
   <v>       0.00000000       0.00000000       0.00000000 </v>
   <v>      -0.00000490      -0.00000490       0.00000000 </v>
   <v>       0.00000490      -0.00000490       0.00000000 </v>
   <v>      -0.00000490       0.00000490       0.00000000 </v>
   <v>       0.00000490       0.00000490       0.00000000 </v>
   <v>       0.00000000       0.00000350       0.00000487 </v>
   <v>      -0.00000000       0.00000348      -0.00000368 </v>
   <v>      -0.00000000      -0.00000350       0.00000487 </v>
   <v>       0.00000000      -0.00000348      -0.00000368 </v>
   <v>       0.00000350       0.00000000       0.00000487 </v>
   <v>      -0.00000350       0.00000000       0.00000487 </v>
   <v>       0.00000348       0.00000000      -0.00000368 </v>
   <v>      -0.00000348       0.00000000      -0.00000368 </v>
   <v>       0.00000350       0.00000000      -0.00000487 </v>
   <v>      -0.00000350       0.00000000      -0.00000487 </v>
   <v>       0.00000348       0.00000000       0.00000368 </v>
   <v>      -0.00000348       0.00000000       0.00000368 </v>
   <v>       0.00000000       0.00000350      -0.00000487 </v>
   <v>      -0.00000000       0.00000348       0.00000368 </v>
   <v>       0.00000000      -0.00000350      -0.00000487 </v>
   <v>       0.00000000      -0.00000348       0.00000368 </v>
   <v>      -0.00000000       0.00000000       0.00000000 </v>
  </varray>
  <varray name="stress" >
   <v>     -53.58922585       0.00000000      -0.00000000 </v>
   <v>       0.00000000     -53.58922585       0.00000000 </v>
   <v>      -0.00000000       0.00000000     -39.84305561 </v>
  </varray>
  <energy>
   <i name="e_fr_energy">   -207.94705871 </i>
   <i name="e_wo_entrp">   -207.94669925 </i>
   <i name="e_0_energy">   -207.94687898 </i>
  </energy>
  <time name="totalsc">  165.25  165.28</time>
 </calculation>
 <calculation>
  <scstep>
   <time name="dav">   24.11   24.11</time>
   <time name="total">   26.15   26.15</time>
   <energy>
    <i name="alphaZ">   1233.39627715 </i>
    <i name="ewald"> -28377.81824659 </i>
    <i name="hartreedc"> -12222.44597822 </i>
    <i name="XCdc">   1244.72515435 </i>
    <i name="pawpsdc">  35736.39051050 </i>
    <i name="pawaedc"> -35127.26521327 </i>
    <i name="eentropy">     -0.00035946 </i>
    <i name="bandstr">  -3036.58104907 </i>
    <i name="atom">  40341.65184589 </i>
    <i name="e_fr_energy">   -207.94705871 </i>
    <i name="e_wo_entrp">   -207.94669925 </i>
    <i name="e_0_energy">   -207.94687898 </i>
   </energy>
  </scstep>
  <scstep>
   <time name="dav">   24.06   24.06</time>
   <time name="total">   26.10   26.10</time>
   <energy>
    <i name="e_fr_energy">   -207.94705871 </i>
    <i name="e_wo_entrp">   -207.94669925 </i>
    <i name="e_0_energy">   -207.94687898 </i>
   </energy>
  </scstep>
  <scstep>
   <time name="dav">   23.97   23.99</time>
   <time name="total">   26.00   26.02</time>
   <energy>
    <i name="e_fr_energy">   -207.94705871 </i>
    <i name="e_wo_entrp">   -207.94669925 </i>
    <i name="e_0_energy">   -207.94687898 </i>
   </energy>
  </scstep>
  <scstep>
   <time name="dav">   23.94   23.94</time>
   <time name="total">   25.97   25.97</time>
   <energy>
    <i name="e_fr_energy">   -207.94705871 </i>
    <i name="e_wo_entrp">   -207.94669925 </i>
    <i name="e_0_energy">   -207.94687898 </i>
   </energy>
  </scstep>
  <scstep>
   <time name="dav">   23.93   23.93</time>
   <time name="total">   24.73   24.73</time>
   <energy>
    <i name="alphaZ">   1233.39627715 </i>
    <i name="ewald"> -28377.81824659 </i>
    <i name="hartreedc"> -12222.44597480 </i>
    <i name="XCdc">   1244.72515503 </i>
    <i name="pawpsdc">  35736.39062046 </i>
    <i name="pawaedc"> -35127.26532472 </i>
    <i name="eentropy">     -0.00035946 </i>
    <i name="bandstr">  -3036.58105167 </i>
    <i name="atom">  40341.65184589 </i>
    <i name="e_fr_energy">   -207.94705871 </i>
    <i name="e_wo_entrp">   -207.94669925 </i>
    <i name="e_0_energy">   -207.94687898 </i>
   </energy>
  </scstep>
  <structure>
   <crystal>
    <varray name="basis" >
     <v>       8.03616302       0.00000000       0.00000000 </v>
     <v>       0.00000000       8.03616302       0.00000000 </v>
     <v>       0.00000000       0.00000000      12.68201935 </v>
    </varray>
    <i name="volume">    819.00374650 </i>
    <varray name="rec_basis" >
     <v>       0.12443750       0.00000000       0.00000000 </v>
     <v>       0.00000000       0.12443750       0.00000000 </v>
     <v>       0.00000000       0.00000000       0.07885180 </v>
    </varray>
   </crystal>
   <varray name="positions" >
    <v>       0.24897950       0.24897950       0.85057427 </v>
    <v>       0.75102050       0.24897950       0.85057427 </v>
    <v>       0.24897950       0.75102050       0.85057427 </v>
    <v>       0.75102050       0.75102050       0.85057427 </v>
    <v>       0.00000000       1.00000000       0.65019848 </v>
    <v>       0.50000000       1.00000000       0.65124787 </v>
    <v>       1.00000000       0.50000000       0.65124787 </v>
    <v>       0.50000000       0.50000000       0.65240758 </v>
    <v>       1.00000000       1.00000000       0.34980152 </v>
    <v>       0.50000000       1.00000000       0.34875213 </v>
    <v>       0.00000000       0.50000000       0.34875213 </v>
    <v>       0.50000000       0.50000000       0.34759242 </v>
    <v>       0.24897950       0.24897950       0.14942573 </v>
    <v>       0.75102050       0.24897950       0.14942573 </v>
    <v>       0.24897950       0.75102050       0.14942573 </v>
    <v>       0.75102050       0.75102050       0.14942573 </v>
    <v>       0.50000000       0.00000000       1.00000000 </v>
    <v>       1.00000000       0.50000000       1.00000000 </v>
    <v>       0.50000000       0.50000000       1.00000000 </v>
    <v>       0.24922272       0.24922272       0.50000000 </v>
    <v>       0.75077728       0.24922272       0.50000000 </v>
    <v>       0.24922272       0.75077728       0.50000000 </v>
    <v>       0.75077728       0.75077728       0.50000000 </v>
    <v>       1.00000000       0.24979067       0.75068561 </v>
    <v>       0.50000000       0.24992519       0.75120113 </v>
    <v>       1.00000000       0.75020933       0.75068561 </v>
    <v>       0.50000000       0.75007481       0.75120113 </v>
    <v>       0.24979067       1.00000000       0.75068561 </v>
    <v>       0.75020933       0.00000000       0.75068561 </v>
    <v>       0.24992519       0.50000000       0.75120113 </v>
    <v>       0.75007481       0.50000000       0.75120113 </v>
    <v>       0.24979067       0.00000000       0.24931439 </v>
    <v>       0.75020933       1.00000000       0.24931439 </v>
    <v>       0.24992519       0.50000000       0.24879887 </v>
    <v>       0.75007481       0.50000000       0.24879887 </v>
    <v>       1.00000000       0.24979067       0.24931439 </v>
    <v>       0.50000000       0.24992519       0.24879887 </v>
    <v>       0.00000000       0.75020933       0.24931439 </v>
    <v>       0.50000000       0.75007481       0.24879887 </v>
    <v>       1.00000000       1.00000000       1.00000000 </v>
   </varray>
  </structure>
  <varray name="forces" >
   <v>      -0.00000118      -0.00000118       0.00000149 </v>
   <v>       0.00000118      -0.00000118       0.00000149 </v>
   <v>      -0.00000118       0.00000118       0.00000149 </v>
   <v>       0.00000118       0.00000118       0.00000149 </v>
   <v>       0.00000000      -0.00000000      -0.00000665 </v>
   <v>       0.00000000      -0.00000000      -0.00000760 </v>
   <v>       0.00000000      -0.00000000      -0.00000760 </v>
   <v>       0.00000000      -0.00000000      -0.00000589 </v>
   <v>       0.00000000      -0.00000000       0.00000665 </v>
   <v>       0.00000000      -0.00000000       0.00000760 </v>
   <v>       0.00000000      -0.00000000       0.00000760 </v>
   <v>       0.00000000      -0.00000000       0.00000589 </v>
   <v>      -0.00000118      -0.00000118      -0.00000149 </v>
   <v>       0.00000118      -0.00000118      -0.00000149 </v>
   <v>      -0.00000118       0.00000118      -0.00000149 </v>
   <v>       0.00000118       0.00000118      -0.00000149 </v>
   <v>       0.00000000      -0.00000000      -0.00000000 </v>
   <v>       0.00000000      -0.00000000      -0.00000000 </v>
   <v>       0.00000000      -0.00000000      -0.00000000 </v>
   <v>      -0.00000535      -0.00000535      -0.00000000 </v>
   <v>       0.00000535      -0.00000535      -0.00000000 </v>
   <v>      -0.00000535       0.00000535      -0.00000000 </v>
   <v>       0.00000535       0.00000535      -0.00000000 </v>
   <v>       0.00000000       0.00000186       0.00000359 </v>
   <v>       0.00000000       0.00000159      -0.00000129 </v>
   <v>       0.00000000      -0.00000186       0.00000359 </v>
   <v>       0.00000000      -0.00000159      -0.00000129 </v>
   <v>       0.00000186      -0.00000000       0.00000359 </v>
   <v>      -0.00000186      -0.00000000       0.00000359 </v>
   <v>       0.00000159      -0.00000000      -0.00000129 </v>
   <v>      -0.00000159      -0.00000000      -0.00000129 </v>
   <v>       0.00000186      -0.00000000      -0.00000359 </v>
   <v>      -0.00000186      -0.00000000      -0.00000359 </v>
   <v>       0.00000159      -0.00000000       0.00000129 </v>
   <v>      -0.00000159      -0.00000000       0.00000129 </v>
   <v>       0.00000000       0.00000186      -0.00000359 </v>
   <v>       0.00000000       0.00000159       0.00000129 </v>
   <v>       0.00000000      -0.00000186      -0.00000359 </v>
   <v>       0.00000000      -0.00000159       0.00000129 </v>
   <v>       0.00000000      -0.00000000      -0.00000000 </v>
  </varray>
  <varray name="stress" >
   <v>     -53.58921668       0.00000000       0.00000000 </v>
   <v>       0.00000000     -53.58921668       0.00000000 </v>
   <v>       0.00000000       0.00000000     -39.84304155 </v>
  </varray>
  <energy>
   <i name="e_fr_energy">   -207.94705871 </i>
   <i name="e_wo_entrp">   -207.94669925 </i>
   <i name="e_0_energy">   -207.94687898 </i>
  </energy>
  <time name="totalsc">  161.31  161.34</time>
  <eigenvalues>
   <array>
    <dimension dim="1">band</dimension>
    <dimension dim="2">kpoint</dimension>
    <dimension dim="3">spin</dimension>
    <field>eigene</field>
    <field>occ</field>
    <set>
     <set comment="spin 1">
      <set comment="kpoint 1">
       <r>  -17.6501    1.0000 </r>
       <r>  -17.6492    1.0000 </r>
       <r>  -17.6462    1.0000 </r>
       <r>  -17.6462    1.0000 </r>
       <r>  -17.6383    1.0000 </r>
       <r>  -17.6383    1.0000 </r>
       <r>  -17.6020    1.0000 </r>
       <r>  -17.6004    1.0000 </r>
       <r>  -17.5983    1.0000 </r>
       <r>  -17.5983    1.0000 </r>
       <r>  -17.5956    1.0000 </r>
       <r>  -17.5937    1.0000 </r>
       <r>  -17.5927    1.0000 </r>
       <r>  -17.5927    1.0000 </r>
       <r>  -17.5392    1.0000 </r>
       <r>  -17.5258    1.0000 </r>
       <r>  -17.5258    1.0000 </r>
       <r>  -17.5202    1.0000 </r>
       <r>  -17.5200    1.0000 </r>
       <r>  -17.5200    1.0000 </r>
       <r>  -17.5161    1.0000 </r>
       <r>  -17.5159    1.0000 </r>
       <r>  -17.5143    1.0000 </r>
       <r>  -17.5126    1.0000 </r>
       <r>  -17.5126    1.0000 </r>
       <r>  -17.5116    1.0000 </r>
       <r>  -17.5100    1.0000 </r>
       <r>  -17.5086    1.0000 </r>
       <r>  -17.5077    1.0000 </r>
       <r>  -17.5055    1.0000 </r>
       <r>  -17.5055    1.0000 </r>
       <r>  -17.5042    1.0000 </r>
       <r>  -17.5028    1.0000 </r>
       <r>  -17.5027    1.0000 </r>
       <r>  -17.5027    1.0000 </r>
       <r>  -17.4999    1.0000 </r>
       <r>  -17.4999    1.0000 </r>
       <r>  -17.4999    1.0000 </r>
       <r>  -17.4993    1.0000 </r>
       <r>  -17.4980    1.0000 </r>
       <r>  -17.4976    1.0000 </r>
       <r>  -17.4941    1.0000 </r>
       <r>  -17.4939    1.0000 </r>
       <r>  -17.4864    1.0000 </r>
       <r>  -17.4779    1.0000 </r>
       <r>  -17.4771    1.0000 </r>
       <r>  -17.4725    1.0000 </r>
       <r>  -17.4725    1.0000 </r>
       <r>  -17.4723    1.0000 </r>
       <r>  -17.4723    1.0000 </r>
       <r>  -17.4704    1.0000 </r>
       <r>  -17.4680    1.0000 </r>
       <r>  -17.4674    1.0000 </r>
       <r>  -17.4674    1.0000 </r>
       <r>  -17.4666    1.0000 </r>
       <r>  -17.4649    1.0000 </r>
       <r>  -17.4637    1.0000 </r>
       <r>  -17.4637    1.0000 </r>
       <r>  -17.4635    1.0000 </r>
       <r>  -17.4635    1.0000 </r>
       <r>  -17.4595    1.0000 </r>
       <r>  -17.4595    1.0000 </r>
       <r>  -17.4594    1.0000 </r>
       <r>  -17.4593    1.0000 </r>
       <r>  -17.4575    1.0000 </r>
       <r>  -17.4558    1.0000 </r>
       <r>  -17.4558    1.0000 </r>
       <r>  -17.4558    1.0000 </r>
       <r>  -17.4558    1.0000 </r>
       <r>  -17.4544    1.0000 </r>
       <r>  -17.4533    1.0000 </r>
       <r>  -17.4518    1.0000 </r>
       <r>  -17.4518    1.0000 </r>
       <r>  -17.4516    1.0000 </r>
       <r>  -17.4510    1.0000 </r>
       <r>  -17.4509    1.0000 </r>
       <r>  -17.4492    1.0000 </r>
       <r>  -17.4480    1.0000 </r>
       <r>  -17.4462    1.0000 </r>
       <r>  -17.4457    1.0000 </r>
       <r>  -13.5631    1.0000 </r>
       <r>  -13.5530    1.0000 </r>
       <r>  -12.4289    1.0000 </r>
       <r>  -12.4285    1.0000 </r>
       <r>  -12.4285    1.0000 </r>
       <r>  -12.4265    1.0000 </r>
       <r>  -12.4238    1.0000 </r>
       <r>  -12.4231    1.0000 </r>
       <r>  -12.4231    1.0000 </r>
       <r>  -12.4211    1.0000 </r>
       <r>  -12.1604    1.0000 </r>
       <r>  -12.1604    1.0000 </r>
       <r>  -12.1576    1.0000 </r>
       <r>  -12.1576    1.0000 </r>
       <r>  -11.4914    1.0000 </r>
       <r>  -11.4913    1.0000 </r>
       <r>   -6.7138    1.0000 </r>
       <r>   -6.2286    1.0000 </r>
       <r>   -5.6299    1.0000 </r>
       <r>   -5.5958    1.0000 </r>
       <r>   -5.5958    1.0000 </r>
       <r>   -5.4757    1.0000 </r>
       <r>   -5.4379    1.0000 </r>
       <r>   -5.3718    1.0000 </r>
       <r>   -5.2559    1.0000 </r>
       <r>   -5.2004    1.0000 </r>
       <r>   -5.1943    1.0000 </r>
       <r>   -5.1676    1.0000 </r>
       <r>   -5.0470    1.0000 </r>
       <r>   -4.8522    1.0000 </r>
       <r>   -4.8522    1.0000 </r>
       <r>   -4.8453    1.0000 </r>
       <r>   -4.8374    1.0000 </r>
       <r>   -4.4778    1.0000 </r>
       <r>   -4.4733    1.0000 </r>
       <r>   -4.4620    1.0000 </r>
       <r>   -4.4620    1.0000 </r>
       <r>   -4.1354    1.0000 </r>
       <r>   -3.1615    1.0000 </r>
       <r>   -2.6393    1.0000 </r>
       <r>    0.2467    1.0000 </r>
       <r>    0.2467    1.0000 </r>
       <r>    0.3036    1.0000 </r>
       <r>    0.3036    1.0000 </r>
       <r>    0.5825    1.0000 </r>
       <r>    0.5825    1.0000 </r>
       <r>    0.9179    1.0000 </r>
       <r>    0.9179    1.0000 </r>
       <r>    0.9193    1.0000 </r>
       <r>    0.9407    1.0000 </r>
       <r>    0.9407    1.0000 </r>
       <r>    0.9607    1.0000 </r>
       <r>    1.0668    1.0000 </r>
       <r>    1.0668    1.0000 </r>
       <r>    1.0713    1.0000 </r>
       <r>    1.0721    1.0000 </r>
       <r>    1.1722    1.0000 </r>
       <r>    1.1970    1.0000 </r>
       <r>    1.5053    1.0000 </r>
       <r>    1.5060    1.0000 </r>
       <r>    1.5087    1.0000 </r>
       <r>    1.5087    1.0000 </r>
       <r>    1.5299    1.0000 </r>
       <r>    1.5308    1.0000 </r>
       <r>    1.5323    1.0000 </r>
       <r>    1.5323    1.0000 </r>
       <r>    1.8931    1.0000 </r>
       <r>    1.9172    1.0000 </r>
       <r>    1.9349    1.0000 </r>
       <r>    1.9357    1.0000 </r>
       <r>    1.9379    1.0000 </r>
       <r>    1.9379    1.0000 </r>
       <r>    2.7958    1.0000 </r>
       <r>    2.7958    1.0000 </r>
       <r>    2.8134    1.0000 </r>
       <r>    2.8227    1.0000 </r>
       <r>    2.9191    1.0000 </r>
       <r>    2.9191    1.0000 </r>
       <r>    2.9649    1.0000 </r>
       <r>    2.9649    1.0000 </r>
       <r>    2.9861    1.0000 </r>
       <r>    2.9902    1.0000 </r>
       <r>    3.0077    1.0000 </r>
       <r>    3.0077    1.0000 </r>
       <r>    3.2841    1.0000 </r>
       <r>    3.6521    1.0000 </r>
       <r>    3.6522    1.0000 </r>
       <r>    3.6550    1.0000 </r>
       <r>    3.6551    1.0000 </r>
       <r>    3.7245    1.0000 </r>
       <r>    3.8972    1.0000 </r>
       <r>    3.8972    1.0000 </r>
       <r>    4.2768    1.0000 </r>
       <r>    4.5119    1.0000 </r>
       <r>    4.5127    1.0000 </r>
       <r>    4.5127    1.0000 </r>
       <r>    4.5440    1.0000 </r>
       <r>    4.8142    1.0000 </r>
       <r>    4.8142    1.0000 </r>
       <r>    4.8193    1.0000 </r>
       <r>    4.8281    1.0000 </r>
       <r>    4.8455    1.0000 </r>
       <r>    4.9481    1.0000 </r>
       <r>    4.9511    1.0000 </r>
       <r>    4.9595    1.0000 </r>
       <r>    4.9595    1.0000 </r>
       <r>    5.1435    1.0000 </r>
       <r>    5.1435    1.0000 </r>
       <r>    5.5739    1.0000 </r>
       <r>    5.5739    1.0000 </r>
       <r>    5.6528    0.9921 </r>
       <r>    5.6543    0.9912 </r>
       <r>    5.7960    0.0511 </r>
       <r>    6.2801    0.0000 </r>
       <r>    6.3512    0.0000 </r>
       <r>    6.3512    0.0000 </r>
       <r>    7.7781    0.0000 </r>
       <r>    7.7781    0.0000 </r>
       <r>    7.7802    0.0000 </r>
       <r>    7.8066    0.0000 </r>
       <r>    8.0906    0.0000 </r>
       <r>    8.3603    0.0000 </r>
       <r>    8.3603    0.0000 </r>
       <r>    8.4387    0.0000 </r>
       <r>    8.4514    0.0000 </r>
       <r>    8.8195    0.0000 </r>
       <r>    8.8195    0.0000 </r>
       <r>    8.9470    0.0000 </r>
       <r>    8.9470    0.0000 </r>
       <r>    8.9646    0.0000 </r>
       <r>    8.9992    0.0000 </r>
       <r>    8.9992    0.0000 </r>
       <r>    9.0248    0.0000 </r>
       <r>    9.1118    0.0000 </r>
       <r>    9.1599    0.0000 </r>
       <r>    9.1599    0.0000 </r>
       <r>    9.2271    0.0000 </r>
       <r>    9.2378    0.0000 </r>
       <r>    9.4019    0.0000 </r>
       <r>    9.4160    0.0000 </r>
       <r>    9.4660    0.0000 </r>
       <r>    9.4660    0.0000 </r>
       <r>    9.6802    0.0000 </r>
       <r>    9.6802    0.0000 </r>
       <r>    9.8289    0.0000 </r>
       <r>    9.8289    0.0000 </r>
       <r>    9.8428    0.0000 </r>
       <r>    9.8891    0.0000 </r>
       <r>    9.8966    0.0000 </r>
       <r>   10.0023    0.0000 </r>
       <r>   10.0024    0.0000 </r>
       <r>   10.0506    0.0000 </r>
      </set>
      <set comment="kpoint 2">
       <r>  -17.6465    1.0000 </r>
       <r>  -17.6452    1.0000 </r>
       <r>  -17.6398    1.0000 </r>
       <r>  -17.6395    1.0000 </r>
       <r>  -17.6321    1.0000 </r>
       <r>  -17.6319    1.0000 </r>
       <r>  -17.6234    1.0000 </r>
       <r>  -17.6190    1.0000 </r>
       <r>  -17.6079    1.0000 </r>
       <r>  -17.6056    1.0000 </r>
       <r>  -17.6011    1.0000 </r>
       <r>  -17.5995    1.0000 </r>
       <r>  -17.5647    1.0000 </r>
       <r>  -17.5574    1.0000 </r>
       <r>  -17.5377    1.0000 </r>
       <r>  -17.5289    1.0000 </r>
       <r>  -17.5238    1.0000 </r>
       <r>  -17.5191    1.0000 </r>
       <r>  -17.5172    1.0000 </r>
       <r>  -17.5166    1.0000 </r>
       <r>  -17.5161    1.0000 </r>
       <r>  -17.5148    1.0000 </r>
       <r>  -17.5136    1.0000 </r>
       <r>  -17.5131    1.0000 </r>
       <r>  -17.5128    1.0000 </r>
       <r>  -17.5118    1.0000 </r>
       <r>  -17.5081    1.0000 </r>
       <r>  -17.5068    1.0000 </r>
       <r>  -17.5066    1.0000 </r>
       <r>  -17.5048    1.0000 </r>
       <r>  -17.5034    1.0000 </r>
       <r>  -17.5004    1.0000 </r>
       <r>  -17.4995    1.0000 </r>
       <r>  -17.4994    1.0000 </r>
       <r>  -17.4982    1.0000 </r>
       <r>  -17.4974    1.0000 </r>
       <r>  -17.4973    1.0000 </r>
       <r>  -17.4959    1.0000 </r>
       <r>  -17.4951    1.0000 </r>
       <r>  -17.4948    1.0000 </r>
       <r>  -17.4939    1.0000 </r>
       <r>  -17.4936    1.0000 </r>
       <r>  -17.4928    1.0000 </r>
       <r>  -17.4850    1.0000 </r>
       <r>  -17.4838    1.0000 </r>
       <r>  -17.4810    1.0000 </r>
       <r>  -17.4798    1.0000 </r>
       <r>  -17.4785    1.0000 </r>
       <r>  -17.4776    1.0000 </r>
       <r>  -17.4773    1.0000 </r>
       <r>  -17.4733    1.0000 </r>
       <r>  -17.4707    1.0000 </r>
       <r>  -17.4707    1.0000 </r>
       <r>  -17.4706    1.0000 </r>
       <r>  -17.4693    1.0000 </r>
       <r>  -17.4670    1.0000 </r>
       <r>  -17.4670    1.0000 </r>
       <r>  -17.4650    1.0000 </r>
       <r>  -17.4641    1.0000 </r>
       <r>  -17.4626    1.0000 </r>
       <r>  -17.4620    1.0000 </r>
       <r>  -17.4613    1.0000 </r>
       <r>  -17.4589    1.0000 </r>
       <r>  -17.4587    1.0000 </r>
       <r>  -17.4581    1.0000 </r>
       <r>  -17.4577    1.0000 </r>
       <r>  -17.4566    1.0000 </r>
       <r>  -17.4565    1.0000 </r>
       <r>  -17.4565    1.0000 </r>
       <r>  -17.4557    1.0000 </r>
       <r>  -17.4552    1.0000 </r>
       <r>  -17.4541    1.0000 </r>
       <r>  -17.4539    1.0000 </r>
       <r>  -17.4531    1.0000 </r>
       <r>  -17.4519    1.0000 </r>
       <r>  -17.4517    1.0000 </r>
       <r>  -17.4512    1.0000 </r>
       <r>  -17.4504    1.0000 </r>
       <r>  -17.4501    1.0000 </r>
       <r>  -17.4486    1.0000 </r>
       <r>  -13.4743    1.0000 </r>
       <r>  -13.4644    1.0000 </r>
       <r>  -12.8522    1.0000 </r>
       <r>  -12.8446    1.0000 </r>
       <r>  -12.3919    1.0000 </r>
       <r>  -12.3910    1.0000 </r>
       <r>  -12.3868    1.0000 </r>
       <r>  -12.3860    1.0000 </r>
       <r>  -12.2026    1.0000 </r>
       <r>  -12.2021    1.0000 </r>
       <r>  -12.1993    1.0000 </r>
       <r>  -12.1987    1.0000 </r>
       <r>  -12.0295    1.0000 </r>
       <r>  -12.0267    1.0000 </r>
       <r>  -11.5480    1.0000 </r>
       <r>  -11.5479    1.0000 </r>
       <r>   -6.6207    1.0000 </r>
       <r>   -6.1638    1.0000 </r>
       <r>   -5.9138    1.0000 </r>
       <r>   -5.7245    1.0000 </r>
       <r>   -5.5545    1.0000 </r>
       <r>   -5.4868    1.0000 </r>
       <r>   -5.3860    1.0000 </r>
       <r>   -5.3049    1.0000 </r>
       <r>   -5.2653    1.0000 </r>
       <r>   -5.1455    1.0000 </r>
       <r>   -5.1199    1.0000 </r>
       <r>   -5.0904    1.0000 </r>
       <r>   -5.0834    1.0000 </r>
       <r>   -4.9213    1.0000 </r>
       <r>   -4.9113    1.0000 </r>
       <r>   -4.8388    1.0000 </r>
       <r>   -4.8017    1.0000 </r>
       <r>   -4.5768    1.0000 </r>
       <r>   -4.5646    1.0000 </r>
       <r>   -4.2584    1.0000 </r>
       <r>   -4.2345    1.0000 </r>
       <r>   -3.9963    1.0000 </r>
       <r>   -3.2576    1.0000 </r>
       <r>   -2.8746    1.0000 </r>
       <r>    0.2508    1.0000 </r>
       <r>    0.3225    1.0000 </r>
       <r>    0.3378    1.0000 </r>
       <r>    0.3919    1.0000 </r>
       <r>    0.4073    1.0000 </r>
       <r>    0.4117    1.0000 </r>
       <r>    0.4614    1.0000 </r>
       <r>    0.6156    1.0000 </r>
       <r>    0.6203    1.0000 </r>
       <r>    0.7032    1.0000 </r>
       <r>    0.7112    1.0000 </r>
       <r>    0.7548    1.0000 </r>
       <r>    0.7580    1.0000 </r>
       <r>    0.7790    1.0000 </r>
       <r>    1.0089    1.0000 </r>
       <r>    1.0425    1.0000 </r>
       <r>    1.4058    1.0000 </r>
       <r>    1.4176    1.0000 </r>
       <r>    1.5292    1.0000 </r>
       <r>    1.5302    1.0000 </r>
       <r>    1.8590    1.0000 </r>
       <r>    1.8603    1.0000 </r>
       <r>    1.9417    1.0000 </r>
       <r>    1.9468    1.0000 </r>
       <r>    2.0278    1.0000 </r>
       <r>    2.0495    1.0000 </r>
       <r>    2.0528    1.0000 </r>
       <r>    2.0592    1.0000 </r>
       <r>    2.1545    1.0000 </r>
       <r>    2.1564    1.0000 </r>
       <r>    2.1574    1.0000 </r>
       <r>    2.1783    1.0000 </r>
       <r>    2.4946    1.0000 </r>
       <r>    2.5100    1.0000 </r>
       <r>    2.7292    1.0000 </r>
       <r>    2.8061    1.0000 </r>
       <r>    2.8459    1.0000 </r>
       <r>    2.9126    1.0000 </r>
       <r>    2.9497    1.0000 </r>
       <r>    2.9691    1.0000 </r>
[...]
       <r>    5.1081    1.0000 </r>
       <r>    5.1107    1.0000 </r>
       <r>    7.0314    0.0000 </r>
       <r>    7.0496    0.0000 </r>
       <r>    7.0496    0.0000 </r>
       <r>    7.0796    0.0000 </r>
       <r>    7.7177    0.0000 </r>
       <r>    7.7444    0.0000 </r>
       <r>    7.7444    0.0000 </r>
       <r>    7.7732    0.0000 </r>
       <r>    8.3141    0.0000 </r>
       <r>    8.3289    0.0000 </r>
       <r>    8.3451    0.0000 </r>
       <r>    8.3451    0.0000 </r>
       <r>    8.5847    0.0000 </r>
       <r>    8.5847    0.0000 </r>
       <r>    8.6049    0.0000 </r>
       <r>    8.6116    0.0000 </r>
       <r>    8.6154    0.0000 </r>
       <r>    8.6305    0.0000 </r>
       <r>    8.6448    0.0000 </r>
       <r>    8.6448    0.0000 </r>
       <r>    8.7192    0.0000 </r>
       <r>    8.7192    0.0000 </r>
       <r>    8.7367    0.0000 </r>
       <r>    8.7594    0.0000 </r>
       <r>    9.3833    0.0000 </r>
       <r>    9.3833    0.0000 </r>
       <r>    9.3931    0.0000 </r>
       <r>    9.3996    0.0000 </r>
       <r>    9.5079    0.0000 </r>
       <r>    9.5079    0.0000 </r>
       <r>    9.5102    0.0000 </r>
       <r>    9.5280    0.0000 </r>
       <r>   10.0880    0.0000 </r>
       <r>   10.0881    0.0000 </r>
       <r>   10.1260    0.0000 </r>
       <r>   10.1575    0.0000 </r>
       <r>   10.1649    0.0000 </r>
       <r>   10.2052    0.0000 </r>
       <r>   10.2071    0.0000 </r>
       <r>   10.2101    0.0000 </r>
      </set>
     </set>
    </set>
   </array>
  </eigenvalues>
  <separator name="orbital magnetization" >
   <v name="MAGDIPOLOUT">      0.00000000      0.00000000      0.00000000</v>
  </separator>
  <dos>
   <i name="efermi">      5.73825221 </i>
   <total>
    <array>
     <dimension dim="1">gridpoints</dimension>
     <dimension dim="2">spin</dimension>
     <field>energy</field>
     <field>total</field>
     <field>integrated</field>
     <set>
      <set comment="spin 1">
       <r>   -19.0476     0.0000     0.0000 </r>
       <r>   -18.9451     0.0000     0.0000 </r>
       <r>   -18.8426     0.0000     0.0000 </r>
       <r>   -18.7401     0.0000     0.0000 </r>
       <r>   -18.6376     0.0000     0.0000 </r>
       <r>   -18.5352     0.0000     0.0000 </r>
       <r>   -18.4327     0.0000     0.0000 </r>
       <r>   -18.3302     0.0000     0.0000 </r>
       <r>   -18.2277     0.0000     0.0000 </r>
       <r>   -18.1252     0.0000     0.0000 </r>
       <r>   -18.0227     0.0000     0.0000 </r>
       <r>   -17.9203     0.0000     0.0000 </r>
       <r>   -17.8178     0.0000     0.0000 </r>
       <r>   -17.7153     1.9607     0.2009 </r>
       <r>   -17.6128   142.2187    14.7760 </r>
       <r>   -17.5103   462.8299    62.2084 </r>
       <r>   -17.4078   908.6337   155.3282 </r>
       <r>   -17.3054    45.5810   159.9995 </r>
       <r>   -17.2029     0.0045   160.0000 </r>
       <r>   -17.1004     0.0000   160.0000 </r>
       <r>   -16.9979     0.0000   160.0000 </r>
       <r>   -16.8954     0.0000   160.0000 </r>
       <r>   -16.7929     0.0000   160.0000 </r>
       <r>   -16.6905     0.0000   160.0000 </r>
       <r>   -16.5880     0.0000   160.0000 </r>
       <r>   -16.4855     0.0000   160.0000 </r>
       <r>   -16.3830     0.0000   160.0000 </r>
       <r>   -16.2805     0.0000   160.0000 </r>
       <r>   -16.1780     0.0000   160.0000 </r>
       <r>   -16.0756     0.0000   160.0000 </r>
       <r>   -15.9731     0.0000   160.0000 </r>
       <r>   -15.8706     0.0000   160.0000 </r>
       <r>   -15.7681     0.0000   160.0000 </r>
       <r>   -15.6656     0.0000   160.0000 </r>
       <r>   -15.5631     0.0000   160.0000 </r>
       <r>   -15.4607     0.0000   160.0000 </r>
       <r>   -15.3582     0.0000   160.0000 </r>
       <r>   -15.2557     0.0000   160.0000 </r>
       <r>   -15.1532     0.0000   160.0000 </r>
       <r>   -15.0507     0.0000   160.0000 </r>
       <r>   -14.9482     0.0000   160.0000 </r>
       <r>   -14.8457     0.0000   160.0000 </r>
       <r>   -14.7433     0.0000   160.0000 </r>
       <r>   -14.6408     0.0000   160.0000 </r>
       <r>   -14.5383     0.0000   160.0000 </r>
       <r>   -14.4358     0.0000   160.0000 </r>
       <r>   -14.3333     0.0000   160.0000 </r>
       <r>   -14.2308     0.0000   160.0000 </r>
       <r>   -14.1284     0.0000   160.0000 </r>
       <r>   -14.0259     0.0000   160.0000 </r>
       <r>   -13.9234     0.0000   160.0000 </r>
       <r>   -13.8209     0.0000   160.0000 </r>
       <r>   -13.7184     0.0000   160.0000 </r>
       <r>   -13.6159     0.1262   160.0129 </r>
       <r>   -13.5135     3.1056   160.3312 </r>
       <r>   -13.4110    10.6478   161.4224 </r>
       <r>   -13.3085     7.9666   162.2389 </r>
       <r>   -13.2060     7.0466   162.9610 </r>
       <r>   -13.1035    19.6406   164.9739 </r>
       <r>   -13.0010     2.9238   165.2735 </r>
       <r>   -12.8986     8.4382   166.1383 </r>
       <r>   -12.7961    18.2666   168.0103 </r>
       <r>   -12.6936    12.5646   169.2980 </r>
       <r>   -12.5911    15.7475   170.9118 </r>
       <r>   -12.4886     3.8092   171.3022 </r>
       <r>   -12.3861    25.4482   173.9102 </r>
       <r>   -12.2837    25.8310   176.5575 </r>
       <r>   -12.1812    21.8848   178.8003 </r>
       <r>   -12.0787    15.6164   180.4007 </r>
       <r>   -11.9762    47.2398   185.2420 </r>
       <r>   -11.8737     6.5044   185.9086 </r>
       <r>   -11.7712    14.1823   187.3621 </r>
       <r>   -11.6688    22.7370   189.6922 </r>
       <r>   -11.5663    11.3476   190.8552 </r>
       <r>   -11.4638    10.5532   191.9367 </r>
       <r>   -11.3613     0.6174   192.0000 </r>
       <r>   -11.2588     0.0003   192.0000 </r>
       <r>   -11.1563     0.0000   192.0000 </r>
       <r>   -11.0539     0.0000   192.0000 </r>
       <r>   -10.9514     0.0000   192.0000 </r>
       <r>   -10.8489     0.0000   192.0000 </r>
       <r>   -10.7464     0.0000   192.0000 </r>
       <r>   -10.6439     0.0000   192.0000 </r>
       <r>   -10.5414     0.0000   192.0000 </r>
       <r>   -10.4390     0.0000   192.0000 </r>
       <r>   -10.3365     0.0000   192.0000 </r>
       <r>   -10.2340     0.0000   192.0000 </r>
       <r>   -10.1315     0.0000   192.0000 </r>
       <r>   -10.0290     0.0000   192.0000 </r>
       <r>    -9.9265     0.0000   192.0000 </r>
       <r>    -9.8241     0.0000   192.0000 </r>
       <r>    -9.7216     0.0000   192.0000 </r>
       <r>    -9.6191     0.0000   192.0000 </r>
       <r>    -9.5166     0.0000   192.0000 </r>
       <r>    -9.4141     0.0000   192.0000 </r>
       <r>    -9.3116     0.0000   192.0000 </r>
       <r>    -9.2092     0.0000   192.0000 </r>
       <r>    -9.1067     0.0000   192.0000 </r>
       <r>    -9.0042     0.0000   192.0000 </r>
       <r>    -8.9017     0.0000   192.0000 </r>
       <r>    -8.7992     0.0000   192.0000 </r>
       <r>    -8.6967     0.0000   192.0000 </r>
       <r>    -8.5943     0.0000   192.0000 </r>
       <r>    -8.4918     0.0000   192.0000 </r>
       <r>    -8.3893     0.0000   192.0000 </r>
       <r>    -8.2868     0.0000   192.0000 </r>
       <r>    -8.1843     0.0000   192.0000 </r>
       <r>    -8.0818     0.0000   192.0000 </r>
       <r>    -7.9794     0.0000   192.0000 </r>
       <r>    -7.8769     0.0000   192.0000 </r>
       <r>    -7.7744     0.0000   192.0000 </r>
       <r>    -7.6719     0.0000   192.0000 </r>
       <r>    -7.5694     0.0000   192.0000 </r>
       <r>    -7.4669     0.0000   192.0000 </r>
       <r>    -7.3645     0.0000   192.0000 </r>
       <r>    -7.2620     0.0000   192.0000 </r>
       <r>    -7.1595     0.0000   192.0000 </r>
       <r>    -7.0570     0.0000   192.0000 </r>
       <r>    -6.9545     0.0000   192.0000 </r>
       <r>    -6.8520     0.0000   192.0000 </r>
       <r>    -6.7496     0.0637   192.0065 </r>
       <r>    -6.6471     0.9205   192.1009 </r>
       <r>    -6.5446     3.7348   192.4836 </r>
       <r>    -6.4421     5.0146   192.9975 </r>
       <r>    -6.3396     4.0627   193.4139 </r>
       <r>    -6.2371    11.7450   194.6176 </r>
       <r>    -6.1347     9.7231   195.6140 </r>
       <r>    -6.0322     9.0336   196.5398 </r>
       <r>    -5.9297    10.5865   197.6247 </r>
       <r>    -5.8272    14.3815   199.0986 </r>
       <r>    -5.7247    14.3116   200.5653 </r>
       <r>    -5.6222    17.2789   202.3361 </r>
       <r>    -5.5198    14.0622   203.7773 </r>
       <r>    -5.4173    21.4503   205.9756 </r>
       <r>    -5.3148    15.3341   207.5470 </r>
       <r>    -5.2123    13.5660   208.9373 </r>
       <r>    -5.1098    25.3261   211.5328 </r>
       <r>    -5.0073    38.9038   215.5198 </r>
       <r>    -4.9049    32.2010   218.8199 </r>
       <r>    -4.8024    46.5988   223.5955 </r>
       <r>    -4.6999    14.0172   225.0320 </r>
       <r>    -4.5974    11.2161   226.1815 </r>
       <r>    -4.4949    23.9863   228.6397 </r>
       <r>    -4.3924    16.5825   230.3391 </r>
       <r>    -4.2900     7.1721   231.0741 </r>
       <r>    -4.1875    10.8121   232.1822 </r>
       <r>    -4.0850    10.7250   233.2813 </r>
       <r>    -3.9825    11.7451   234.4850 </r>
       <r>    -3.8800     2.5827   234.7497 </r>
       <r>    -3.7775     0.0095   234.7507 </r>
       <r>    -3.6751     4.6941   235.2317 </r>
       <r>    -3.5726    15.1766   236.7871 </r>
       <r>    -3.4701     7.9446   237.6013 </r>
       <r>    -3.3676     2.1701   237.8237 </r>
       <r>    -3.2651     3.4201   238.1742 </r>
       <r>    -3.1626     3.8127   238.5649 </r>
       <r>    -3.0602     6.4823   239.2292 </r>
       <r>    -2.9577     2.4137   239.4766 </r>
       <r>    -2.8552     3.3965   239.8247 </r>
       <r>    -2.7527     0.7256   239.8991 </r>
       <r>    -2.6502     0.7245   239.9733 </r>
       <r>    -2.5477     0.2585   239.9998 </r>
       <r>    -2.4453     0.0020   240.0000 </r>
       <r>    -2.3428     0.0000   240.0000 </r>
       <r>    -2.2403     0.0000   240.0000 </r>
       <r>    -2.1378     0.0000   240.0000 </r>
       <r>    -2.0353     0.0000   240.0000 </r>
       <r>    -1.9328     0.0000   240.0000 </r>
       <r>    -1.8304     0.0000   240.0000 </r>
       <r>    -1.7279     0.0000   240.0000 </r>
       <r>    -1.6254     0.0000   240.0000 </r>
       <r>    -1.5229     0.0000   240.0000 </r>
       <r>    -1.4204     0.0000   240.0000 </r>
       <r>    -1.3179     0.0000   240.0000 </r>
       <r>    -1.2155     0.0000   240.0000 </r>
       <r>    -1.1130     0.0000   240.0000 </r>
       <r>    -1.0105     0.0000   240.0000 </r>
       <r>    -0.9080     0.0000   240.0000 </r>
       <r>    -0.8055     0.0000   240.0000 </r>
       <r>    -0.7030     0.0000   240.0000 </r>
       <r>    -0.6006     0.0000   240.0000 </r>
       <r>    -0.4981     0.0000   240.0000 </r>
       <r>    -0.3956     0.0000   240.0000 </r>
       <r>    -0.2931     0.0000   240.0000 </r>
       <r>    -0.1906     0.0314   240.0032 </r>
       <r>    -0.0881     2.0481   240.2131 </r>
       <r>     0.0143     7.1778   240.9487 </r>
       <r>     0.1168    25.8329   243.5962 </r>
       <r>     0.2193    29.7523   246.6453 </r>
       <r>     0.3218    39.8331   250.7275 </r>
       <r>     0.4243    29.1286   253.7127 </r>
       <r>     0.5268    15.7298   255.3248 </r>
       <r>     0.6292    19.4846   257.3216 </r>
       <r>     0.7317    29.1191   260.3058 </r>
       <r>     0.8342    15.6253   261.9072 </r>
       <r>     0.9367    18.0912   263.7612 </r>
       <r>     1.0392    25.1476   266.3384 </r>
       <r>     1.1417    25.3572   268.9371 </r>
       <r>     1.2441    14.7986   270.4537 </r>
       <r>     1.3466     9.4770   271.4250 </r>
       <r>     1.4491    16.2878   273.0942 </r>
       <r>     1.5516    47.6762   277.9802 </r>
       <r>     1.6541    19.1791   279.9457 </r>
       <r>     1.7566    26.8528   282.6977 </r>
       <r>     1.8590    22.8920   285.0438 </r>
       <r>     1.9615    35.8682   288.7197 </r>
       <r>     2.0640    38.7691   292.6928 </r>
       <r>     2.1665    43.3936   297.1400 </r>
       <r>     2.2690    27.4542   299.9536 </r>
       <r>     2.3715    21.3679   302.1434 </r>
       <r>     2.4739    24.7583   304.6808 </r>
       <r>     2.5764    32.3465   307.9957 </r>
       <r>     2.6789    18.5077   309.8925 </r>
       <r>     2.7814     8.4915   310.7627 </r>
       <r>     2.8839    35.2256   314.3727 </r>
       <r>     2.9864    47.0354   319.1931 </r>
       <r>     3.0888    33.3080   322.6066 </r>
       <r>     3.1913    28.3230   325.5092 </r>
       <r>     3.2938    28.5850   328.4387 </r>
       <r>     3.3963    31.6687   331.6842 </r>
       <r>     3.4988    18.3894   333.5689 </r>
       <r>     3.6013    16.7546   335.2859 </r>
       <r>     3.7037    22.7877   337.6213 </r>
       <r>     3.8062     9.4016   338.5848 </r>
       <r>     3.9087    12.1110   339.8260 </r>
       <r>     4.0112    15.5341   341.4180 </r>
       <r>     4.1137    14.5929   342.9135 </r>
       <r>     4.2162    16.0254   344.5558 </r>
       <r>     4.3186    18.2682   346.4280 </r>
       <r>     4.4211    17.4493   348.2163 </r>
       <r>     4.5236    50.6510   353.4072 </r>
       <r>     4.6261    58.0791   359.3593 </r>
       <r>     4.7286    59.4419   365.4511 </r>
       <r>     4.8311    39.9158   369.5418 </r>
       <r>     4.9335    35.0371   373.1325 </r>
       <r>     5.0360    16.7538   374.8495 </r>
       <r>     5.1385    25.0931   377.4212 </r>
       <r>     5.2410    33.1929   380.8229 </r>
       <r>     5.3435    13.5004   382.2064 </r>
       <r>     5.4460     5.3707   382.7568 </r>
       <r>     5.5484     5.3574   383.3059 </r>
       <r>     5.6509     5.4223   383.8616 </r>
       <r>     5.7534     1.3909   384.0041 </r>
       <r>     5.8559     0.3484   384.0398 </r>
       <r>     5.9584     0.3365   384.0743 </r>
       <r>     6.0609     0.4909   384.1246 </r>
       <r>     6.1633     0.0345   384.1282 </r>
       <r>     6.2658     0.8217   384.2124 </r>
       <r>     6.3683     0.9221   384.3069 </r>
       <r>     6.4708     0.2584   384.3334 </r>
       <r>     6.5733     0.5230   384.3870 </r>
       <r>     6.6758     2.7697   384.6708 </r>
       <r>     6.7782     3.5270   385.0323 </r>
       <r>     6.8807     5.3342   385.5789 </r>
       <r>     6.9832     5.2711   386.1191 </r>
       <r>     7.0857     6.6713   386.8028 </r>
       <r>     7.1882    10.7987   387.9095 </r>
       <r>     7.2907     8.2100   388.7509 </r>
       <r>     7.3931    14.0550   390.1913 </r>
       <r>     7.4956     5.6959   390.7750 </r>
       <r>     7.5981     7.9812   391.5930 </r>
       <r>     7.7006    15.2288   393.1537 </r>
       <r>     7.8031    37.8982   397.0376 </r>
       <r>     7.9056    19.6150   399.0478 </r>
       <r>     8.0080    24.0492   401.5125 </r>
       <r>     8.1105    29.2252   404.5076 </r>
       <r>     8.2130    28.4105   407.4192 </r>
       <r>     8.3155    13.1391   408.7657 </r>
       <r>     8.4180    23.6830   411.1928 </r>
       <r>     8.5205    18.6250   413.1016 </r>
       <r>     8.6229    25.3390   415.6984 </r>
       <r>     8.7254    30.9717   418.8725 </r>
       <r>     8.8279    28.2765   421.7704 </r>
       <r>     8.9304    24.6060   424.2921 </r>
       <r>     9.0329    36.2528   428.0074 </r>
       <r>     9.1354    32.0218   431.2891 </r>
       <r>     9.2378    26.3821   433.9928 </r>
       <r>     9.3403    23.7267   436.4244 </r>
       <r>     9.4428    29.7516   439.4735 </r>
       <r>     9.5453    20.8373   441.6090 </r>
       <r>     9.6478    20.4421   443.7039 </r>
       <r>     9.7503    18.8573   445.6365 </r>
       <r>     9.8527    16.9147   447.3700 </r>
       <r>     9.9552    40.9137   451.5629 </r>
       <r>    10.0577    53.8834   457.0851 </r>
       <r>    10.1602    33.6448   460.5331 </r>
       <r>    10.2627    25.3136   463.1274 </r>
       <r>    10.3652     8.3246   463.9805 </r>
       <r>    10.4676     0.1903   464.0000 </r>
       <r>    10.5701     0.0000   464.0000 </r>
       <r>    10.6726     0.0000   464.0000 </r>
       <r>    10.7751     0.0000   464.0000 </r>
       <r>    10.8776     0.0000   464.0000 </r>
       <r>    10.9801     0.0000   464.0000 </r>
       <r>    11.0825     0.0000   464.0000 </r>
       <r>    11.1850     0.0000   464.0000 </r>
       <r>    11.2875     0.0000   464.0000 </r>
       <r>    11.3900     0.0000   464.0000 </r>
       <r>    11.4925     0.0000   464.0000 </r>
       <r>    11.5950     0.0000   464.0000 </r>
       <r>    11.6974     0.0000   464.0000 </r>
      </set>
     </set>
    </array>
   </total>
  </dos>
 </calculation>
 <structure name="finalpos" >
  <crystal>
   <varray name="basis" >
    <v>       8.03616302       0.00000000       0.00000000 </v>
    <v>       0.00000000       8.03616302       0.00000000 </v>
    <v>       0.00000000       0.00000000      12.68201935 </v>
   </varray>
   <i name="volume">    819.00374650 </i>
   <varray name="rec_basis" >
    <v>       0.12443750       0.00000000       0.00000000 </v>
    <v>       0.00000000       0.12443750       0.00000000 </v>
    <v>       0.00000000       0.00000000       0.07885180 </v>
   </varray>
  </crystal>
  <varray name="positions" >
   <v>       0.24897950       0.24897950       0.85057427 </v>
   <v>       0.75102050       0.24897950       0.85057427 </v>
   <v>       0.24897950       0.75102050       0.85057427 </v>
   <v>       0.75102050       0.75102050       0.85057427 </v>
   <v>       0.00000000       1.00000000       0.65019848 </v>
   <v>       0.50000000       1.00000000       0.65124787 </v>
   <v>       1.00000000       0.50000000       0.65124787 </v>
   <v>       0.50000000       0.50000000       0.65240758 </v>
   <v>       1.00000000       1.00000000       0.34980152 </v>
   <v>       0.50000000       1.00000000       0.34875213 </v>
   <v>       0.00000000       0.50000000       0.34875213 </v>
   <v>       0.50000000       0.50000000       0.34759242 </v>
   <v>       0.24897950       0.24897950       0.14942573 </v>
   <v>       0.75102050       0.24897950       0.14942573 </v>
   <v>       0.24897950       0.75102050       0.14942573 </v>
   <v>       0.75102050       0.75102050       0.14942573 </v>
   <v>       0.50000000       0.00000000       1.00000000 </v>
   <v>       1.00000000       0.50000000       1.00000000 </v>
   <v>       0.50000000       0.50000000       1.00000000 </v>
   <v>       0.24922272       0.24922272       0.50000000 </v>
   <v>       0.75077728       0.24922272       0.50000000 </v>
   <v>       0.24922272       0.75077728       0.50000000 </v>
   <v>       0.75077728       0.75077728       0.50000000 </v>
   <v>       1.00000000       0.24979067       0.75068561 </v>
   <v>       0.50000000       0.24992519       0.75120113 </v>
   <v>       1.00000000       0.75020933       0.75068561 </v>
   <v>       0.50000000       0.75007481       0.75120113 </v>
   <v>       0.24979067       1.00000000       0.75068561 </v>
   <v>       0.75020933       0.00000000       0.75068561 </v>
   <v>       0.24992519       0.50000000       0.75120113 </v>
   <v>       0.75007481       0.50000000       0.75120113 </v>
   <v>       0.24979067       0.00000000       0.24931439 </v>
   <v>       0.75020933       1.00000000       0.24931439 </v>
   <v>       0.24992519       0.50000000       0.24879887 </v>
   <v>       0.75007481       0.50000000       0.24879887 </v>
   <v>       1.00000000       0.24979067       0.24931439 </v>
   <v>       0.50000000       0.24992519       0.24879887 </v>
   <v>       0.00000000       0.75020933       0.24931439 </v>
   <v>       0.50000000       0.75007481       0.24879887 </v>
   <v>       1.00000000       1.00000000       1.00000000 </v>
  </varray>
 </structure>
</modeling>
