unknown system                          
           1
     8.036163    0.000000    0.000000
     0.000000    8.036163    0.000000
     0.000000    0.000000   12.682019
   Bi   Se   O    S 
    16     7    16     1
Direct configuration=     1
   0.24897953  0.24897953  0.85057427
   0.75102047  0.24897953  0.85057427
   0.24897953  0.75102047  0.85057427
   0.75102047  0.75102047  0.85057427
   0.00000000  0.00000000  0.65019854
   0.50000000  0.00000000  0.65124784
   0.00000000  0.50000000  0.65124784
   0.50000000  0.50000000  0.65240747
   0.00000000  0.00000000  0.34980146
   0.50000000  0.00000000  0.34875216
   0.00000000  0.50000000  0.34875216
   0.50000000  0.50000000  0.34759253
   0.24897953  0.24897953  0.14942573
   0.75102047  0.24897953  0.14942573
   0.24897953  0.75102047  0.14942573
   0.75102047  0.75102047  0.14942573
   0.50000000  0.00000000  0.00000000
   0.00000000  0.50000000  0.00000000
   0.50000000  0.50000000  0.00000000
   0.24922273  0.24922273  0.50000000
   0.75077727  0.24922273  0.50000000
   0.24922273  0.75077727  0.50000000
   0.75077727  0.75077727  0.50000000
   0.00000000  0.24979065  0.75068560
   0.50000000  0.24992516  0.75120115
   0.00000000  0.75020935  0.75068560
   0.50000000  0.75007484  0.75120115
   0.24979065  0.00000000  0.75068560
   0.75020935  0.00000000  0.75068560
   0.24992516  0.50000000  0.75120115
   0.75007484  0.50000000  0.75120115
   0.24979065  0.00000000  0.24931440
   0.75020935  0.00000000  0.24931440
   0.24992516  0.50000000  0.24879885
   0.75007484  0.50000000  0.24879885
   0.00000000  0.24979065  0.24931440
   0.50000000  0.24992516  0.24879885
   0.00000000  0.75020935  0.24931440
   0.50000000  0.75007484  0.24879885
   0.00000000  0.00000000  0.00000000
Direct configuration=     2
   0.24897950  0.24897950  0.85057427
   0.75102050  0.24897950  0.85057427
   0.24897950  0.75102050  0.85057427
   0.75102050  0.75102050  0.85057427
   0.00000000  1.00000000  0.65019847
   0.50000000  1.00000000  0.65124787
   1.00000000  0.50000000  0.65124787
   0.50000000  0.50000000  0.65240759
   1.00000000  1.00000000  0.34980153
   0.50000000  1.00000000  0.34875213
   0.00000000  0.50000000  0.34875213
   0.50000000  0.50000000  0.34759241
   0.24897950  0.24897950  0.14942573
   0.75102050  0.24897950  0.14942573
   0.24897950  0.75102050  0.14942573
   0.75102050  0.75102050  0.14942573
   0.50000000  0.00000000  1.00000000
   1.00000000  0.50000000  1.00000000
   0.50000000  0.50000000  1.00000000
   0.24922272  0.24922272  0.50000000
   0.75077728  0.24922272  0.50000000
   0.24922272  0.75077728  0.50000000
   0.75077728  0.75077728  0.50000000
   1.00000000  0.24979068  0.75068561
   0.50000000  0.24992519  0.75120112
   1.00000000  0.75020932  0.75068561
   0.50000000  0.75007481  0.75120112
   0.24979068  1.00000000  0.75068561
   0.75020932  0.00000000  0.75068561
   0.24992519  0.50000000  0.75120112
   0.75007481  0.50000000  0.75120112
   0.24979068  0.00000000  0.24931439
   0.75020932  1.00000000  0.24931439
   0.24992519  0.50000000  0.24879888
   0.75007481  0.50000000  0.24879888
   1.00000000  0.24979068  0.24931439
   0.50000000  0.24992519  0.24879888
   0.00000000  0.75020932  0.24931439
   0.50000000  0.75007481  0.24879888
   1.00000000  1.00000000  1.00000000
Direct configuration=     3
   0.24897951  0.24897951  0.85057427
   0.75102049  0.24897951  0.85057427
   0.24897951  0.75102049  0.85057427
   0.75102049  0.75102049  0.85057427
   0.00000000  0.00000000  0.65019849
   0.50000000  0.00000000  0.65124786
   0.00000000  0.50000000  0.65124786
   0.50000000  0.50000000  0.65240755
   0.00000000  0.00000000  0.34980151
   0.50000000  0.00000000  0.34875214
   0.00000000  0.50000000  0.34875214
   0.50000000  0.50000000  0.34759245
   0.24897951  0.24897951  0.14942573
   0.75102049  0.24897951  0.14942573
   0.24897951  0.75102049  0.14942573
   0.75102049  0.75102049  0.14942573
   0.50000000  0.00000000  0.00000000
   0.00000000  0.50000000  0.00000000
   0.50000000  0.50000000  0.00000000
   0.24922272  0.24922272  0.50000000
   0.75077728  0.24922272  0.50000000
   0.24922272  0.75077728  0.50000000
   0.75077728  0.75077728  0.50000000
   0.00000000  0.24979067  0.75068561
   0.50000000  0.24992518  0.75120113
   0.00000000  0.75020933  0.75068561
   0.50000000  0.75007482  0.75120113
   0.24979067  0.00000000  0.75068561
   0.75020933  0.00000000  0.75068561
   0.24992518  0.50000000  0.75120113
   0.75007482  0.50000000  0.75120113
   0.24979067  0.00000000  0.24931439
   0.75020933  0.00000000  0.24931439
   0.24992518  0.50000000  0.24879887
   0.75007482  0.50000000  0.24879887
   0.00000000  0.24979067  0.24931439
   0.50000000  0.24992518  0.24879887
   0.00000000  0.75020933  0.24931439
   0.50000000  0.75007482  0.24879887
   0.00000000  0.00000000  0.00000000
Direct configuration=     4
   0.24897950  0.24897950  0.85057427
   0.75102050  0.24897950  0.85057427
   0.24897950  0.75102050  0.85057427
   0.75102050  0.75102050  0.85057427
   0.00000000  1.00000000  0.65019848
   0.50000000  1.00000000  0.65124787
   1.00000000  0.50000000  0.65124787
   0.50000000  0.50000000  0.65240758
   1.00000000  1.00000000  0.34980152
   0.50000000  1.00000000  0.34875213
   0.00000000  0.50000000  0.34875213
   0.50000000  0.50000000  0.34759242
   0.24897950  0.24897950  0.14942573
   0.75102050  0.24897950  0.14942573
   0.24897950  0.75102050  0.14942573
   0.75102050  0.75102050  0.14942573
   0.50000000  0.00000000  1.00000000
   1.00000000  0.50000000  1.00000000
   0.50000000  0.50000000  1.00000000
   0.24922272  0.24922272  0.50000000
   0.75077728  0.24922272  0.50000000
   0.24922272  0.75077728  0.50000000
   0.75077728  0.75077728  0.50000000
   1.00000000  0.24979067  0.75068561
   0.50000000  0.24992519  0.75120113
   1.00000000  0.75020933  0.75068561
   0.50000000  0.75007481  0.75120113
   0.24979067  1.00000000  0.75068561
   0.75020933  0.00000000  0.75068561
   0.24992519  0.50000000  0.75120113
   0.75007481  0.50000000  0.75120113
   0.24979067  0.00000000  0.24931439
   0.75020933  1.00000000  0.24931439
   0.24992519  0.50000000  0.24879887
   0.75007481  0.50000000  0.24879887
   1.00000000  0.24979067  0.24931439
   0.50000000  0.24992519  0.24879887
   0.00000000  0.75020933  0.24931439
   0.50000000  0.75007481  0.24879887
   1.00000000  1.00000000  1.00000000
