  40  40   0   0
  0.1817034E+02  0.7722557E-09  0.7722557E-09  0.1218711E-08  0.5000000E-15
  1.000000000000000E-004
  CAR 
 unknown system                          
     13.96421949    -17.64425965  301      7.02352428      1.00000000
    -17.644  0.0000E+00  0.0000E+00
    -17.539  0.0000E+00  0.0000E+00
    -17.434  0.0000E+00  0.0000E+00
    -17.328  0.0000E+00  0.0000E+00
    -17.223  0.0000E+00  0.0000E+00
    -17.117  0.0000E+00  0.0000E+00
    -17.012  0.0000E+00  0.0000E+00
    -16.907  0.0000E+00  0.0000E+00
    -16.801  0.0000E+00  0.0000E+00
    -16.696  0.0000E+00  0.0000E+00
    -16.591  0.0000E+00  0.0000E+00
    -16.485  0.1153E-15  0.1214E-16
    -16.380  0.6996E-07  0.7371E-08
    -16.275  0.1070E-01  0.1127E-02
    -16.169  0.1149E+01  0.1222E+00
    -16.064  0.1587E+01  0.2894E+00
    -15.958  0.6691E+01  0.9944E+00
    -15.853  0.5676E+01  0.1592E+01
    -15.748  0.7228E-01  0.1600E+01
    -15.642  0.7145E-06  0.1600E+01
    -15.537  0.1665E-14  0.1600E+01
    -15.432  0.0000E+00  0.1600E+01
    -15.326  0.0000E+00  0.1600E+01
    -15.221  0.0000E+00  0.1600E+01
    -15.116  0.0000E+00  0.1600E+01
    -15.010  0.0000E+00  0.1600E+01
    -14.905  0.0000E+00  0.1600E+01
    -14.799  0.0000E+00  0.1600E+01
    -14.694  0.0000E+00  0.1600E+01
    -14.589  0.0000E+00  0.1600E+01
    -14.483  0.0000E+00  0.1600E+01
    -14.378  0.0000E+00  0.1600E+01
    -14.273  0.0000E+00  0.1600E+01
    -14.167  0.0000E+00  0.1600E+01
    -14.062  0.0000E+00  0.1600E+01
    -13.957  0.0000E+00  0.1600E+01
    -13.851  0.0000E+00  0.1600E+01
    -13.746  0.0000E+00  0.1600E+01
    -13.641  0.0000E+00  0.1600E+01
    -13.535  0.0000E+00  0.1600E+01
    -13.430  0.0000E+00  0.1600E+01
    -13.324  0.0000E+00  0.1600E+01
    -13.219  0.0000E+00  0.1600E+01
    -13.114  0.0000E+00  0.1600E+01
    -13.008  0.2195E-18  0.1600E+01
    -12.903  0.4492E-09  0.1600E+01
    -12.798  0.1210E-03  0.1600E+01
    -12.692  0.1530E-01  0.1602E+01
    -12.587  0.6332E-01  0.1608E+01
    -12.482  0.9305E-01  0.1618E+01
    -12.376  0.4224E-01  0.1623E+01
    -12.271  0.6002E-01  0.1629E+01
    -12.165  0.1696E+00  0.1647E+01
    -12.060  0.5456E-01  0.1652E+01
    -11.955  0.1912E-01  0.1655E+01
    -11.849  0.9587E-01  0.1665E+01
    -11.744  0.1777E+00  0.1683E+01
    -11.639  0.8771E-01  0.1693E+01
    -11.533  0.1119E+00  0.1704E+01
    -11.428  0.7707E-01  0.1712E+01
    -11.323  0.3606E-01  0.1716E+01
    -11.217  0.3068E+00  0.1749E+01
    -11.112  0.1712E+00  0.1767E+01
    -11.006  0.1467E+00  0.1782E+01
    -10.901  0.1462E+00  0.1798E+01
    -10.796  0.3119E+00  0.1830E+01
    -10.690  0.2563E+00  0.1857E+01
    -10.585  0.2696E-01  0.1860E+01
    -10.480  0.1306E+00  0.1874E+01
    -10.374  0.2169E+00  0.1897E+01
    -10.269  0.6142E-01  0.1903E+01
    -10.164  0.1339E+00  0.1917E+01
    -10.058  0.2443E-01  0.1920E+01
     -9.953  0.1829E-03  0.1920E+01
     -9.848  0.7752E-09  0.1920E+01
     -9.742  0.0000E+00  0.1920E+01
     -9.637  0.0000E+00  0.1920E+01
     -9.531  0.0000E+00  0.1920E+01
     -9.426  0.0000E+00  0.1920E+01
     -9.321  0.0000E+00  0.1920E+01
     -9.215  0.0000E+00  0.1920E+01
     -9.110  0.0000E+00  0.1920E+01
     -9.005  0.0000E+00  0.1920E+01
     -8.899  0.0000E+00  0.1920E+01
     -8.794  0.0000E+00  0.1920E+01
     -8.689  0.0000E+00  0.1920E+01
     -8.583  0.0000E+00  0.1920E+01
     -8.478  0.0000E+00  0.1920E+01
     -8.372  0.0000E+00  0.1920E+01
     -8.267  0.0000E+00  0.1920E+01
     -8.162  0.0000E+00  0.1920E+01
     -8.056  0.0000E+00  0.1920E+01
     -7.951  0.0000E+00  0.1920E+01
     -7.846  0.0000E+00  0.1920E+01
     -7.740  0.0000E+00  0.1920E+01
     -7.635  0.0000E+00  0.1920E+01
     -7.530  0.0000E+00  0.1920E+01
     -7.424  0.0000E+00  0.1920E+01
     -7.319  0.0000E+00  0.1920E+01
     -7.213  0.0000E+00  0.1920E+01
     -7.108  0.0000E+00  0.1920E+01
     -7.003  0.0000E+00  0.1920E+01
     -6.897  0.0000E+00  0.1920E+01
     -6.792  0.0000E+00  0.1920E+01
     -6.687  0.0000E+00  0.1920E+01
     -6.581  0.0000E+00  0.1920E+01
     -6.476  0.0000E+00  0.1920E+01
     -6.371  0.1327E-09  0.1920E+01
     -6.265  0.3080E-04  0.1920E+01
     -6.160  0.2859E-02  0.1920E+01
     -6.054  0.1504E-01  0.1922E+01
     -5.949  0.3327E-01  0.1925E+01
     -5.844  0.3831E-01  0.1929E+01
     -5.738  0.2870E-01  0.1932E+01
     -5.633  0.5854E-01  0.1939E+01
     -5.528  0.1046E+00  0.1950E+01
     -5.422  0.6567E-01  0.1957E+01
     -5.317  0.5740E-01  0.1963E+01
     -5.212  0.8957E-01  0.1972E+01
     -5.106  0.8108E-01  0.1981E+01
     -5.001  0.1118E+00  0.1992E+01
     -4.896  0.9274E-01  0.2002E+01
     -4.790  0.1200E+00  0.2015E+01
     -4.685  0.1340E+00  0.2029E+01
     -4.579  0.8834E-01  0.2038E+01
     -4.474  0.1737E+00  0.2057E+01
     -4.369  0.7610E-01  0.2065E+01
     -4.263  0.7095E-01  0.2072E+01
     -4.158  0.7225E-01  0.2080E+01
     -4.053  0.1289E+00  0.2093E+01
     -3.947  0.9949E-01  0.2104E+01
     -3.842  0.2308E+00  0.2128E+01
     -3.737  0.3083E+00  0.2160E+01
     -3.631  0.4182E+00  0.2205E+01
     -3.526  0.2228E+00  0.2228E+01
     -3.420  0.1322E+00  0.2242E+01
     -3.315  0.1473E+00  0.2257E+01
     -3.210  0.8917E-01  0.2267E+01
     -3.104  0.1792E+00  0.2286E+01
     -2.999  0.1359E+00  0.2300E+01
     -2.894  0.1351E+00  0.2314E+01
     -2.788  0.6726E-01  0.2321E+01
     -2.683  0.3426E-01  0.2325E+01
     -2.578  0.8015E-01  0.2333E+01
     -2.472  0.8888E-01  0.2343E+01
     -2.367  0.4333E-01  0.2347E+01
     -2.261  0.1289E-02  0.2348E+01
     -2.156  0.2060E-01  0.2350E+01
     -2.051  0.1498E+00  0.2365E+01
     -1.945  0.8804E-01  0.2375E+01
     -1.840  0.2649E-01  0.2378E+01
     -1.735  0.1350E-01  0.2379E+01
     -1.629  0.4078E-01  0.2383E+01
     -1.524  0.2295E-01  0.2386E+01
     -1.419  0.5927E-01  0.2392E+01
     -1.313  0.1416E-01  0.2393E+01
     -1.208  0.3172E-01  0.2397E+01
     -1.102  0.1783E-01  0.2399E+01
     -0.997  0.2162E-02  0.2399E+01
     -0.892  0.6800E-02  0.2400E+01
     -0.786  0.3539E-02  0.2400E+01
     -0.681  0.6167E-03  0.2400E+01
     -0.576  0.1300E-06  0.2400E+01
     -0.470  0.6209E-14  0.2400E+01
     -0.365  0.0000E+00  0.2400E+01
     -0.260  0.0000E+00  0.2400E+01
     -0.154  0.0000E+00  0.2400E+01
     -0.049  0.0000E+00  0.2400E+01
      0.056  0.0000E+00  0.2400E+01
      0.162  0.0000E+00  0.2400E+01
      0.267  0.0000E+00  0.2400E+01
      0.373  0.0000E+00  0.2400E+01
      0.478  0.0000E+00  0.2400E+01
      0.583  0.1153E-11  0.2400E+01
      0.689  0.3890E-05  0.2400E+01
      0.794  0.4398E-02  0.2400E+01
      0.899  0.2852E-01  0.2403E+01
      1.005  0.1225E+00  0.2416E+01
      1.110  0.3253E+00  0.2451E+01
      1.215  0.2588E+00  0.2478E+01
      1.321  0.2028E+00  0.2499E+01
      1.426  0.2899E+00  0.2530E+01
      1.532  0.2098E+00  0.2552E+01
      1.637  0.2139E+00  0.2574E+01
      1.742  0.2476E+00  0.2601E+01
      1.848  0.2568E+00  0.2628E+01
      1.953  0.1194E+00  0.2640E+01
      2.058  0.1146E+00  0.2652E+01
      2.164  0.2034E+00  0.2674E+01
      2.269  0.2489E+00  0.2700E+01
      2.374  0.2332E+00  0.2724E+01
      2.480  0.2140E+00  0.2747E+01
      2.585  0.1796E+00  0.2766E+01
      2.691  0.3044E+00  0.2798E+01
      2.796  0.3202E+00  0.2832E+01
      2.901  0.2795E+00  0.2861E+01
      3.007  0.2326E+00  0.2886E+01
      3.112  0.1617E+00  0.2903E+01
      3.217  0.1659E+00  0.2920E+01
      3.323  0.2518E+00  0.2947E+01
      3.428  0.4265E+00  0.2992E+01
      3.533  0.2932E+00  0.3023E+01
      3.639  0.1494E+00  0.3038E+01
      3.744  0.2560E+00  0.3065E+01
      3.850  0.1481E+00  0.3081E+01
      3.955  0.2450E+00  0.3107E+01
      4.060  0.1814E+00  0.3126E+01
      4.166  0.2060E+00  0.3148E+01
      4.271  0.2504E+00  0.3174E+01
      4.376  0.3908E+00  0.3215E+01
      4.482  0.2674E+00  0.3243E+01
      4.587  0.2477E+00  0.3269E+01
      4.692  0.2905E+00  0.3300E+01
      4.798  0.3385E+00  0.3336E+01
      4.903  0.2404E+00  0.3361E+01
      5.008  0.3141E+00  0.3394E+01
      5.114  0.2939E+00  0.3425E+01
      5.219  0.2001E+00  0.3446E+01
      5.325  0.1801E+00  0.3465E+01
      5.430  0.6001E-01  0.3471E+01
      5.535  0.2051E+00  0.3493E+01
      5.641  0.4409E+00  0.3539E+01
      5.746  0.3454E+00  0.3576E+01
      5.851  0.4551E+00  0.3624E+01
      5.957  0.4209E+00  0.3668E+01
      6.062  0.2731E+00  0.3697E+01
      6.167  0.2555E+00  0.3724E+01
      6.273  0.2358E+00  0.3749E+01
      6.378  0.1051E+00  0.3760E+01
      6.484  0.2354E+00  0.3785E+01
      6.589  0.2869E+00  0.3815E+01
      6.694  0.2003E+00  0.3836E+01
      6.800  0.3484E-01  0.3840E+01
      6.905  0.3987E-02  0.3840E+01
      7.010  0.9553E-06  0.3840E+01
      7.116  0.1669E-12  0.3840E+01
      7.221  0.7071E-06  0.3840E+01
      7.326  0.1098E-02  0.3840E+01
      7.432  0.2823E-02  0.3840E+01
      7.537  0.1629E-03  0.3840E+01
      7.643  0.6363E-02  0.3841E+01
      7.748  0.7915E-02  0.3842E+01
      7.853  0.1411E-02  0.3842E+01
      7.959  0.9550E-03  0.3842E+01
      8.064  0.7789E-02  0.3843E+01
      8.169  0.1720E-01  0.3845E+01
      8.275  0.3577E-01  0.3849E+01
      8.380  0.5605E-01  0.3854E+01
      8.485  0.2169E-01  0.3857E+01
      8.591  0.4121E-01  0.3861E+01
      8.696  0.1152E+00  0.3873E+01
      8.802  0.6233E-01  0.3880E+01
      8.907  0.1145E+00  0.3892E+01
      9.012  0.4599E-01  0.3897E+01
      9.118  0.9837E-01  0.3907E+01
      9.223  0.9540E-01  0.3917E+01
      9.328  0.1032E+00  0.3928E+01
      9.434  0.3136E+00  0.3961E+01
      9.539  0.2332E+00  0.3986E+01
      9.644  0.2018E+00  0.4007E+01
      9.750  0.1687E+00  0.4025E+01
      9.855  0.2570E+00  0.4052E+01
      9.960  0.2258E+00  0.4076E+01
     10.066  0.2096E+00  0.4098E+01
     10.171  0.1975E+00  0.4118E+01
     10.277  0.2895E+00  0.4149E+01
     10.382  0.3073E+00  0.4181E+01
     10.487  0.2357E+00  0.4206E+01
     10.593  0.2083E+00  0.4228E+01
     10.698  0.2407E+00  0.4253E+01
     10.803  0.2079E+00  0.4275E+01
     10.909  0.3269E+00  0.4310E+01
     11.014  0.2007E+00  0.4331E+01
     11.119  0.2192E+00  0.4354E+01
     11.225  0.1707E+00  0.4372E+01
     11.330  0.1553E+00  0.4388E+01
     11.436  0.1597E+00  0.4405E+01
     11.541  0.1583E+00  0.4422E+01
     11.646  0.2004E+00  0.4443E+01
     11.752  0.3070E+00  0.4475E+01
     11.857  0.3400E+00  0.4511E+01
     11.962  0.2792E+00  0.4541E+01
     12.068  0.2894E+00  0.4571E+01
     12.173  0.3225E+00  0.4605E+01
     12.278  0.2285E+00  0.4629E+01
     12.384  0.6289E-01  0.4636E+01
     12.489  0.2544E-01  0.4638E+01
     12.595  0.1415E-01  0.4640E+01
     12.700  0.3835E-03  0.4640E+01
     12.805  0.6075E-08  0.4640E+01
     12.911  0.1932E-16  0.4640E+01
     13.016  0.0000E+00  0.4640E+01
     13.121  0.0000E+00  0.4640E+01
     13.227  0.0000E+00  0.4640E+01
     13.332  0.0000E+00  0.4640E+01
     13.437  0.0000E+00  0.4640E+01
     13.543  0.0000E+00  0.4640E+01
     13.648  0.0000E+00  0.4640E+01
     13.753  0.0000E+00  0.4640E+01
     13.859  0.0000E+00  0.4640E+01
     13.964  0.0000E+00  0.4640E+01
