 vasp.6.4.3 19Mar24 (build Apr 09 2025 20:43:19) complex                        
  
 executed on             LinuxIFC date 2025.04.13  08:23:16
 running   36 mpi-ranks, on    1 nodes
 distrk:  each k-point on   36 cores,    1 groups
 distr:  one band on NCORE=   9 cores,    4 groups


--------------------------------------------------------------------------------------------------------


 INCAR:
   PREC = Accurate
   IBRION = 2
   NSW = 100
   NELMIN = 5
   ISIF = 2
   ENCUT = 520
   EDIFF = 1.000000e-08
   EDIFFG = -1.000000e-5
   ISMEAR = 0
   SIGMA = 0.05
   IALGO = 38
   LREAL = .FALSE.
   ADDGRID = .TRUE.
   LWAVE = .FALSE.
   LCHARG = .FALSE.
   NCORE = 9

 POTCAR:    PAW_PBE Bi_d 06Sep2000                
 POTCAR:    PAW_PBE Se 06Sep2000                  
 POTCAR:    PAW_PBE O 08Apr2002                   
 POTCAR:    PAW_PBE S 06Sep2000                   
 POTCAR:    PAW_PBE Bi_d 06Sep2000                
   SHA256 =  572e7eac3f9482ff025db24f2820381a7a3856069fa85913dc654793f618f69a Bi_d/POTCAR           
   COPYR  = (c) Copyright 06Sep2000 Georg Kresse                                                    
   COPYR  = This file is part of the software VASP. Any use, copying, and all other rights are regul
   COPYR  = If you do not have a valid VASP license, you may not use, copy or distribute this file. 
   VRHFIN =Bi:                                                                                      
   LEXCH  = PE                                                                                      
   EATOM  =  1959.2045 eV,  143.9975 Ry                                                             
                                                                                                    
   TITEL  = PAW_PBE Bi_d 06Sep2000                                                                  
   LULTRA =        F    use ultrasoft PP ?                                                          
   IUNSCR =        1    unscreen: 0-lin 1-nonlin 2-no                                               
   RPACOR =    2.200    partial core radius                                                         
   POMASS =  208.980; ZVAL   =   15.000    mass and valenz                                          
   RCORE  =    2.500    outmost cutoff radius                                                       
   RWIGS  =    3.090; RWIGS  =    1.635    wigner-seitz radius (au A)                               
   ENMAX  =  242.839; ENMIN  =  182.129 eV                                                          
   ICORE  =        3    local potential                                                             
   LCOR   =        T    correct aug charges                                                         
   LPAW   =        T    paw PP                                                                      
   EAUG   =  442.899                                                                                
   DEXC   =    0.000                                                                                
   RMAX   =    2.551    core radius for proj-oper                                                   
   RAUG   =    1.300    factor for augmentation sphere                                              
   RDEP   =    2.650    radius for radial grids                                                     
   RDEPT  =    2.039    core radius for aug-charge                                                  
                                                                                                    
   Atomic configuration                                                                             
   16 entries                                                                                       
     n  l   j            E        occ.                                                              
     1  0  0.50    -90639.6581   2.0000                                                             
     2  0  0.50    -16282.4666   2.0000                                                             
     2  1  1.50    -13922.8286   6.0000                                                             
     3  0  0.50     -3930.4763   2.0000                                                             
     3  1  1.50     -3256.7013   6.0000                                                             
     3  2  2.50     -2581.6168  10.0000                                                             
     4  0  0.50      -902.2614   2.0000                                                             
     4  1  1.50      -681.5915   6.0000                                                             
     4  2  2.50      -429.8249  10.0000                                                             
     4  3  3.50      -152.6004  14.0000                                                             
     5  0  0.50      -157.7156   2.0000                                                             
     5  1  1.50       -95.8054   6.0000                                                             
     5  2  2.50       -27.0806  10.0000                                                             
     6  0  0.50       -14.4732   2.0000                                                             
     6  1  1.50        -4.5702   3.0000                                                             
     5  3  2.50        -2.7212   0.0000                                                             
   Description                                                                                      
     l       E           TYP  RCUT    TYP  RCUT                                                     
     2    -27.0805982     23  2.500                                                                 
     2     -1.3605826     23  2.500                                                                 
     0    -14.4732271     23  2.500                                                                 
     0      6.8029130     23  2.500                                                                 
     1     -4.5701651     23  2.500                                                                 
     1     13.6058260     23  2.500                                                                 
     3     -1.3605826      7  2.500                                                                 
  local pseudopotential read in
  partial core-charges read in
  partial kinetic energy density read in
  atomic valenz-charges read in
  non local Contribution for L=           2  read in
    real space projection operators read in
  non local Contribution for L=           2  read in
    real space projection operators read in
  non local Contribution for L=           0  read in
    real space projection operators read in
  non local Contribution for L=           0  read in
    real space projection operators read in
  non local Contribution for L=           1  read in
    real space projection operators read in
  non local Contribution for L=           1  read in
    real space projection operators read in
    PAW grid and wavefunctions read in
 
   number of l-projection  operators is LMAX  =           6
   number of lm-projection operators is LMMAX =          18
 
 POTCAR:    PAW_PBE Se 06Sep2000                  
   SHA256 =  eabb916e6b4c819dc065ce039373bc328651da483898f08fb9e49c498452bf12 Se/POTCAR             
   COPYR  = (c) Copyright 06Sep2000 Georg Kresse                                                    
   COPYR  = This file is part of the software VASP. Any use, copying, and all other rights are regul
   COPYR  = If you do not have a valid VASP license, you may not use, copy or distribute this file. 
   VRHFIN =Se: s2p4                                                                                 
   LEXCH  = PE                                                                                      
   EATOM  =   257.1286 eV,   18.8984 Ry                                                             
                                                                                                    
   TITEL  = PAW_PBE Se 06Sep2000                                                                    
   LULTRA =        F    use ultrasoft PP ?                                                          
   IUNSCR =        1    unscreen: 0-lin 1-nonlin 2-no                                               
   RPACOR =    1.900    partial core radius                                                         
   POMASS =   78.960; ZVAL   =    6.000    mass and valenz                                          
   RCORE  =    2.100    outmost cutoff radius                                                       
   RWIGS  =    2.200; RWIGS  =    1.164    wigner-seitz radius (au A)                               
   ENMAX  =  211.555; ENMIN  =  158.666 eV                                                          
   ICORE  =        3    local potential                                                             
   LCOR   =        T    correct aug charges                                                         
   LPAW   =        T    paw PP                                                                      
   EAUG   =  446.842                                                                                
   DEXC   =    0.000                                                                                
   RMAX   =    2.147    core radius for proj-oper                                                   
   RAUG   =    1.300    factor for augmentation sphere                                              
   RDEP   =    2.177    radius for radial grids                                                     
   RDEPT  =    1.928    core radius for aug-charge                                                  
                                                                                                    
   Atomic configuration                                                                             
   10 entries                                                                                       
     n  l   j            E        occ.                                                              
     1  0  0.50    -12503.4787   2.0000                                                             
     2  0  0.50     -1606.9547   2.0000                                                             
     2  1  1.50     -1413.3140   6.0000                                                             
     3  0  0.50      -213.4885   2.0000                                                             
     3  1  1.50      -152.9538   6.0000                                                             
     3  2  2.50       -53.1221  10.0000                                                             
     4  0  0.50       -17.2865   2.0000                                                             
     4  1  0.50        -6.5110   4.0000                                                             
     4  2  2.50        -6.8029   0.0000                                                             
     4  3  2.50        -6.8029   0.0000                                                             
   Description                                                                                      
     l       E           TYP  RCUT    TYP  RCUT                                                     
     0    -17.2865377     23  2.100                                                                 
     0    -15.3094411     23  2.100                                                                 
     1     -6.5110275     23  2.100                                                                 
     1     -0.0695192     23  2.100                                                                 
     2     -6.8029130     23  2.100                                                                 
     3     -1.3605826      7  2.100                                                                 
  local pseudopotential read in
  partial core-charges read in
  partial kinetic energy density read in
  atomic valenz-charges read in
  non local Contribution for L=           0  read in
    real space projection operators read in
  non local Contribution for L=           0  read in
    real space projection operators read in
  non local Contribution for L=           1  read in
    real space projection operators read in
  non local Contribution for L=           1  read in
    real space projection operators read in
  non local Contribution for L=           2  read in
    real space projection operators read in
    PAW grid and wavefunctions read in
 
   number of l-projection  operators is LMAX  =           5
   number of lm-projection operators is LMMAX =          13
 
 POTCAR:    PAW_PBE O 08Apr2002                   
   SHA256 =  818f92134a0a090dccd8ba1447fa70422a3b330e708bb4f08108d8ae51209ddf O/POTCAR              
   COPYR  = (c) Copyright 08Apr2002 Georg Kresse                                                    
   COPYR  = This file is part of the software VASP. Any use, copying, and all other rights are regul
   COPYR  = If you do not have a valid VASP license, you may not use, copy or distribute this file. 
   VRHFIN =O: s2p4                                                                                  
   LEXCH  = PE                                                                                      
   EATOM  =   432.3788 eV,   31.7789 Ry                                                             
                                                                                                    
   TITEL  = PAW_PBE O 08Apr2002                                                                     
   LULTRA =        F    use ultrasoft PP ?                                                          
   IUNSCR =        1    unscreen: 0-lin 1-nonlin 2-no                                               
   RPACOR =    1.200    partial core radius                                                         
   POMASS =   16.000; ZVAL   =    6.000    mass and valenz                                          
   RCORE  =    1.520    outmost cutoff radius                                                       
   RWIGS  =    1.550; RWIGS  =    0.820    wigner-seitz radius (au A)                               
   ENMAX  =  400.000; ENMIN  =  300.000 eV                                                          
   ICORE  =        2    local potential                                                             
   LCOR   =        T    correct aug charges                                                         
   LPAW   =        T    paw PP                                                                      
   EAUG   =  605.392                                                                                
   DEXC   =    0.000                                                                                
   RMAX   =    1.553    core radius for proj-oper                                                   
   RAUG   =    1.300    factor for augmentation sphere                                              
   RDEP   =    1.550    radius for radial grids                                                     
   RDEPT  =    1.329    core radius for aug-charge                                                  
                                                                                                    
   Atomic configuration                                                                             
    4 entries                                                                                       
     n  l   j            E        occ.                                                              
     1  0  0.50      -514.6923   2.0000                                                             
     2  0  0.50       -23.9615   2.0000                                                             
     2  1  0.50        -9.0305   4.0000                                                             
     3  2  1.50        -9.5241   0.0000                                                             
   Description                                                                                      
     l       E           TYP  RCUT    TYP  RCUT                                                     
     0    -23.9615318     23  1.200                                                                 
     0     -9.5240782     23  1.200                                                                 
     1     -9.0304911     23  1.520                                                                 
     1      8.1634956     23  1.520                                                                 
     2     -9.5240782      7  1.500                                                                 
  local pseudopotential read in
  partial core-charges read in
  partial kinetic energy density read in
  kinetic energy density of atom read in
  atomic valenz-charges read in
  non local Contribution for L=           0  read in
    real space projection operators read in
  non local Contribution for L=           0  read in
    real space projection operators read in
  non local Contribution for L=           1  read in
    real space projection operators read in
  non local Contribution for L=           1  read in
    real space projection operators read in
    PAW grid and wavefunctions read in
 
   number of l-projection  operators is LMAX  =           4
   number of lm-projection operators is LMMAX =           8
 
 POTCAR:    PAW_PBE S 06Sep2000                   
   SHA256 =  0fc7481fb0695f01bdc6462160264c5c84044ae9ec85a907d398b887a2bc3132 S/POTCAR              
   COPYR  = (c) Copyright 06Sep2000 Georg Kresse                                                    
   COPYR  = This file is part of the software VASP. Any use, copying, and all other rights are regul
   COPYR  = If you do not have a valid VASP license, you may not use, copy or distribute this file. 
   VRHFIN =S : s2p4                                                                                 
   LEXCH  = PE                                                                                      
   EATOM  =   276.8230 eV,   20.3459 Ry                                                             
                                                                                                    
   TITEL  = PAW_PBE S 06Sep2000                                                                     
   LULTRA =        F    use ultrasoft PP ?                                                          
   IUNSCR =        1    unscreen: 0-lin 1-nonlin 2-no                                               
   RPACOR =    1.500    partial core radius                                                         
   POMASS =   32.066; ZVAL   =    6.000    mass and valenz                                          
   RCORE  =    1.900    outmost cutoff radius                                                       
   RWIGS  =    2.200; RWIGS  =    1.164    wigner-seitz radius (au A)                               
   ENMAX  =  258.689; ENMIN  =  194.016 eV                                                          
   ICORE  =        2    local potential                                                             
   LCOR   =        T    correct aug charges                                                         
   LPAW   =        T    paw PP                                                                      
   EAUG   =  335.092                                                                                
   DEXC   =    0.000                                                                                
   RMAX   =    1.942    core radius for proj-oper                                                   
   RAUG   =    1.300    factor for augmentation sphere                                              
   RDEP   =    1.954    radius for radial grids                                                     
   RDEPT  =    1.744    core radius for aug-charge                                                  
                                                                                                    
   Atomic configuration                                                                             
    6 entries                                                                                       
     n  l   j            E        occ.                                                              
     1  0  0.50     -2405.8406   2.0000                                                             
     2  0  0.50      -211.7007   2.0000                                                             
     2  1  1.50      -156.4958   6.0000                                                             
     3  0  0.50       -17.2562   2.0000                                                             
     3  1  0.50        -7.0085   4.0000                                                             
     3  2  1.50        -6.8029   0.0000                                                             
   Description                                                                                      
     l       E           TYP  RCUT    TYP  RCUT                                                     
     0    -17.2561641     23  1.900                                                                 
     0    -15.8743224     23  1.900                                                                 
     1     -7.0085400     23  1.900                                                                 
     1     -2.7779785     23  1.900                                                                 
     2     -6.8029130     23  1.900                                                                 
  local pseudopotential read in
  partial core-charges read in
  partial kinetic energy density read in
  atomic valenz-charges read in
  non local Contribution for L=           0  read in
    real space projection operators read in
  non local Contribution for L=           0  read in
    real space projection operators read in
  non local Contribution for L=           1  read in
    real space projection operators read in
  non local Contribution for L=           1  read in
    real space projection operators read in
    PAW grid and wavefunctions read in
 
   number of l-projection  operators is LMAX  =           4
   number of lm-projection operators is LMMAX =           8
 
 -----------------------------------------------------------------------------
|                                                                             |
|               ----> ADVICE to this user running VASP <----                  |
|                                                                             |
|     You have a (more or less) 'large supercell' and for larger cells it     |
|     might be more efficient to use real-space projection operators.         |
|     Therefore, try LREAL= Auto in the INCAR file.                           |
|     Mind: For very accurate calculation, you might also keep the            |
|     reciprocal projection scheme (i.e. LREAL=.FALSE.).                      |
|                                                                             |
 -----------------------------------------------------------------------------

  PAW_PBE Bi_d 06Sep2000                :
 energy of atom  1       EATOM=-1959.2045
 kinetic energy error for atom=    0.0040 (will be added to EATOM!!)
  PAW_PBE Se 06Sep2000                  :
 energy of atom  2       EATOM= -257.1286
 kinetic energy error for atom=    0.0007 (will be added to EATOM!!)
  PAW_PBE O 08Apr2002                   :
 energy of atom  3       EATOM= -432.3788
 kinetic energy error for atom=    0.0208 (will be added to EATOM!!)
  PAW_PBE S 06Sep2000                   :
 energy of atom  4       EATOM= -276.8230
 kinetic energy error for atom=    0.0016 (will be added to EATOM!!)
 
 
 POSCAR: generated by phonopy
  positions in direct lattice
  velocities in cartesian coordinates


 exchange-correlation table for PE
   RHO(1)=    0.500       N(1)  =     2000
   RHO(2)=  100.500       N(2)  =     4000
 


--------------------------------------------------------------------------------------------------------


 ion  position               nearest neighbor table
   1  0.249  0.249  0.856-  24 2.32  28 2.32  25 2.32  30 2.32  40 3.23  18 3.24  17 3.24  19 3.25
                            13 3.50   5 3.75   7 3.75   6 3.75   8 3.75   3 3.84   2 3.84   3 3.88
   2  0.751  0.249  0.856-  24 2.32  29 2.32  25 2.32  31 2.32  40 3.23  18 3.24  17 3.24  19 3.25
                            14 3.50   5 3.75   7 3.75   6 3.75   8 3.75   4 3.84   1 3.84   4 3.88
   3  0.249  0.751  0.856-  26 2.32  28 2.32  27 2.32  30 2.32  40 3.23  18 3.24  17 3.24  19 3.25
                            15 3.50   5 3.75   7 3.75   6 3.75   8 3.75   4 3.84   1 3.84   4 3.88
   4  0.751  0.751  0.856-  26 2.32  29 2.32  27 2.32  31 2.32  40 3.23  18 3.24  17 3.24  19 3.25
                            16 3.50   5 3.75   7 3.75   6 3.75   8 3.75   3 3.84   2 3.84   2 3.88
   5  0.000  0.000  0.645-  24 2.32  26 2.32  28 2.32  29 2.32  20 3.25  21 3.25  22 3.25  23 3.25
                             9 3.52   2 3.75   3 3.75   4 3.75   1 3.75   7 3.86   6 3.86   7 3.86
   6  0.500  0.000  0.645-  28 2.32  29 2.32  25 2.32  27 2.32  20 3.25  21 3.25  22 3.25  23 3.25
                            10 3.54   2 3.75   3 3.75   4 3.75   1 3.75   5 3.86   5 3.86   8 3.86
   7  0.000  0.500  0.645-  24 2.32  26 2.32  30 2.32  31 2.32  20 3.25  21 3.25  22 3.25  23 3.25
                            11 3.54   2 3.75   3 3.75   4 3.75   1 3.75   5 3.86   5 3.86   8 3.86
   8  0.500  0.500  0.646-  25 2.32  27 2.32  30 2.32  31 2.32  20 3.26  21 3.26  22 3.26  23 3.26
                            12 3.57   2 3.75   3 3.75   4 3.75   1 3.75   7 3.86   6 3.86   6 3.86
   9  0.000  0.000  0.355-  32 2.32  33 2.32  36 2.32  38 2.32  20 3.25  21 3.25  22 3.25  23 3.25
                             5 3.52  13 3.75  14 3.75  15 3.75  16 3.75  10 3.86  11 3.86  11 3.86
  10  0.500  0.000  0.355-  32 2.32  33 2.32  37 2.32  39 2.32  20 3.25  21 3.25  22 3.25  23 3.25
                             6 3.54  13 3.75  14 3.75  15 3.75  16 3.75   9 3.86   9 3.86  12 3.86
  11  0.000  0.500  0.355-  36 2.32  38 2.32  34 2.32  35 2.32  20 3.25  21 3.25  22 3.25  23 3.25
                             7 3.54  13 3.75  14 3.75  15 3.75  16 3.75   9 3.86   9 3.86  12 3.86
  12  0.500  0.500  0.354-  34 2.32  35 2.32  37 2.32  39 2.32  20 3.26  21 3.26  22 3.26  23 3.26
                             8 3.57  13 3.75  14 3.75  15 3.75  16 3.75  10 3.86  11 3.86  10 3.86
  13  0.249  0.249  0.144-  32 2.32  36 2.32  34 2.32  37 2.32  40 3.23  18 3.24  17 3.24  19 3.25
                             1 3.50   9 3.75  10 3.75  11 3.75  12 3.75  14 3.84  15 3.84  15 3.88
  14  0.751  0.249  0.144-  33 2.32  36 2.32  35 2.32  37 2.32  40 3.23  18 3.24  17 3.24  19 3.25
                             2 3.50   9 3.75  10 3.75  11 3.75  12 3.75  13 3.84  16 3.84  16 3.88
  15  0.249  0.751  0.144-  32 2.32  38 2.32  34 2.32  39 2.32  40 3.23  18 3.24  17 3.24  19 3.25
                             3 3.50   9 3.75  10 3.75  11 3.75  12 3.75  13 3.84  16 3.84  16 3.88
  16  0.751  0.751  0.144-  33 2.32  38 2.32  35 2.32  39 2.32  40 3.23  18 3.24  17 3.24  19 3.25
                             4 3.50   9 3.75  10 3.75  11 3.75  12 3.75  14 3.84  15 3.84  14 3.88
  17  0.500  0.000  0.000-   1 3.24   2 3.24   3 3.24   4 3.24  13 3.24  14 3.24  15 3.24  16 3.24

  18  0.000  0.500  0.000-   1 3.24   2 3.24   3 3.24   4 3.24  13 3.24  14 3.24  15 3.24  16 3.24

  19  0.500  0.500  0.000-   1 3.25   2 3.25   3 3.25   4 3.25  13 3.25  14 3.25  15 3.25  16 3.25

  20  0.250  0.250  0.500-   5 3.25   9 3.25   6 3.25  10 3.25   7 3.25  11 3.25   8 3.26  12 3.26

  21  0.750  0.250  0.500-   5 3.25   9 3.25   6 3.25  10 3.25   7 3.25  11 3.25   8 3.26  12 3.26

  22  0.250  0.750  0.500-   5 3.25   9 3.25   6 3.25  10 3.25   7 3.25  11 3.25   8 3.26  12 3.26

  23  0.750  0.750  0.500-   5 3.25   9 3.25   6 3.25  10 3.25   7 3.25  11 3.25   8 3.26  12 3.26

  24  0.000  0.249  0.750-   1 2.32   2 2.32   5 2.32   7 2.32
  25  0.500  0.250  0.751-   8 2.32   6 2.32   1 2.32   2 2.32
  26  0.000  0.751  0.750-   3 2.32   4 2.32   5 2.32   7 2.32
  27  0.500  0.750  0.751-   8 2.32   6 2.32   3 2.32   4 2.32
  28  0.249  0.000  0.750-   1 2.32   3 2.32   5 2.32   6 2.32
  29  0.751  0.000  0.750-   2 2.32   4 2.32   5 2.32   6 2.32
  30  0.250  0.500  0.751-   8 2.32   7 2.32   1 2.32   3 2.32
  31  0.750  0.500  0.751-   8 2.32   7 2.32   2 2.32   4 2.32
  32  0.249  0.000  0.250-  13 2.32  15 2.32   9 2.32  10 2.32
  33  0.751  0.000  0.250-  14 2.32  16 2.32   9 2.32  10 2.32
  34  0.250  0.500  0.249-  12 2.32  11 2.32  13 2.32  15 2.32
  35  0.750  0.500  0.249-  12 2.32  11 2.32  14 2.32  16 2.32
  36  0.000  0.249  0.250-  13 2.32  14 2.32   9 2.32  11 2.32
  37  0.500  0.250  0.249-  12 2.32  10 2.32  13 2.32  14 2.32
  38  0.000  0.751  0.250-  15 2.32  16 2.32   9 2.32  11 2.32
  39  0.500  0.750  0.249-  12 2.32  10 2.32  15 2.32  16 2.32
  40  0.000  0.000  0.000-   1 3.23   2 3.23   3 3.23   4 3.23  13 3.23  14 3.23  15 3.23  16 3.23

 
  LATTYP: Found a simple tetragonal cell.
 ALAT       =     7.7225566629
 C/A-ratio  =     1.5781187256
  
  Lattice vectors:
  
 A1 = (   7.7225566629,   0.0000000000,   0.0000000000)
 A2 = (   0.0000000000,   7.7225566629,   0.0000000000)
 A3 = (   0.0000000000,   0.0000000000,  12.1871112793)


Analysis of symmetry for initial positions (statically):
=====================================================================
 Subroutine PRICEL returns:
 Original cell was already a primitive cell.
 

 Routine SETGRP: Setting up the symmetry group for a 
 simple tetragonal supercell.


 Subroutine GETGRP returns: Found 16 space group operations
 (whereof 16 operations were pure point group operations)
 out of a pool of 16 trial point group operations.


The static configuration has the point symmetry D_4h.


Analysis of symmetry for dynamics (positions and initial velocities):
=====================================================================
 Subroutine PRICEL returns:
 Original cell was already a primitive cell.
 

 Routine SETGRP: Setting up the symmetry group for a 
 simple tetragonal supercell.


 Subroutine GETGRP returns: Found 16 space group operations
 (whereof 16 operations were pure point group operations)
 out of a pool of 16 trial point group operations.


The dynamic configuration has the point symmetry D_4h.


 Subroutine INISYM returns: Found 16 space group operations
 (whereof 16 operations are pure point group operations),
 and found     1 'primitive' translations


----------------------------------------------------------------------------------------

                                     Primitive cell                                     

  volume of cell :     726.8135

  direct lattice vectors                    reciprocal lattice vectors
     7.722556663  0.000000000  0.000000000     0.129490795  0.000000000  0.000000000
     0.000000000  7.722556663  0.000000000     0.000000000  0.129490795  0.000000000
     0.000000000  0.000000000 12.187111279     0.000000000  0.000000000  0.082053899

  length of vectors
     7.722556663  7.722556663 12.187111279     0.129490795  0.129490795  0.082053899

  position of ions in fractional coordinates (direct lattice)
     0.248804894  0.248804894  0.856396661
     0.751195106  0.248804894  0.856396661
     0.248804894  0.751195106  0.856396661
     0.751195106  0.751195106  0.856396661
     0.000000000  0.000000000  0.644537356
     0.500000000  0.000000000  0.645382445
     0.000000000  0.500000000  0.645382445
     0.500000000  0.500000000  0.646316637
     0.000000000  0.000000000  0.355462644
     0.500000000  0.000000000  0.354617555
     0.000000000  0.500000000  0.354617555
     0.500000000  0.500000000  0.353683363
     0.248804894  0.248804894  0.143603339
     0.751195106  0.248804894  0.143603339
     0.248804894  0.751195106  0.143603339
     0.751195106  0.751195106  0.143603339
     0.500000000  0.000000000  0.000000000
     0.000000000  0.500000000  0.000000000
     0.500000000  0.500000000  0.000000000
     0.250335799  0.250335799  0.500000000
     0.749664201  0.250335799  0.500000000
     0.250335799  0.749664201  0.500000000
     0.749664201  0.749664201  0.500000000
     0.000000000  0.249456024  0.750357765
     0.500000000  0.249589853  0.751490073
     0.000000000  0.750543976  0.750357765
     0.500000000  0.750410147  0.751490073
     0.249456024  0.000000000  0.750357765
     0.750543976  0.000000000  0.750357765
     0.249589853  0.500000000  0.751490073
     0.750410147  0.500000000  0.751490073
     0.249456024  0.000000000  0.249642235
     0.750543976  0.000000000  0.249642235
     0.249589853  0.500000000  0.248509927
     0.750410147  0.500000000  0.248509927
     0.000000000  0.249456024  0.249642235
     0.500000000  0.249589853  0.248509927
     0.000000000  0.750543976  0.249642235
     0.500000000  0.750410147  0.248509927
     0.000000000  0.000000000  0.000000000

  ion indices of the primitive-cell ions
   primitive index   ion index
                 1           1
                 2           2
                 3           3
                 4           4
                 5           5
                 6           6
                 7           7
                 8           8
                 9           9
                10          10
                11          11
                12          12
                13          13
                14          14
                15          15
                16          16
                17          17
                18          18
                19          19
                20          20
                21          21
                22          22
                23          23
                24          24
                25          25
                26          26
                27          27
                28          28
                29          29
                30          30
                31          31
                32          32
                33          33
                34          34
                35          35
                36          36
                37          37
                38          38
                39          39
                40          40

----------------------------------------------------------------------------------------

 
 
 KPOINTS: K-Spacing Value to Generate K-Mesh: 0.03

Automatic generation of k-mesh.
 Grid dimensions read from file:
 generate k-points for:    4    4    3

 Generating k-lattice:

  Cartesian coordinates                     Fractional coordinates (reciprocal lattice)
     0.032372699  0.000000000  0.000000000     0.250000000  0.000000000  0.000000000
     0.000000000  0.032372699  0.000000000     0.000000000  0.250000000  0.000000000
     0.000000000  0.000000000  0.027351300     0.000000000  0.000000000  0.333333333

  Length of vectors
     0.032372699  0.032372699  0.027351300

  Shift w.r.t. Gamma in fractional coordinates (k-lattice)
     0.000000000  0.000000000  0.000000000

 
 Subroutine IBZKPT returns following result:
 ===========================================
 
 Found     12 irreducible k-points:
 
 Following reciprocal coordinates:
            Coordinates               Weight
  0.000000  0.000000  0.000000      1.000000
  0.250000  0.000000  0.000000      4.000000
  0.500000  0.000000  0.000000      2.000000
  0.250000  0.250000  0.000000      4.000000
  0.500000  0.250000  0.000000      4.000000
  0.500000  0.500000  0.000000      1.000000
  0.000000  0.000000  0.333333      2.000000
  0.250000  0.000000  0.333333      8.000000
  0.500000  0.000000  0.333333      4.000000
  0.250000  0.250000  0.333333      8.000000
  0.500000  0.250000  0.333333      8.000000
  0.500000  0.500000  0.333333      2.000000
 
 Following cartesian coordinates:
            Coordinates               Weight
  0.000000  0.000000  0.000000      1.000000
  0.031887  0.000000  0.000000      4.000000
  0.063774  0.000000  0.000000      2.000000
  0.031887  0.031887  0.000000      4.000000
  0.063774  0.031887  0.000000      4.000000
  0.063774  0.063774  0.000000      1.000000
  0.000000  0.000000  0.026941      2.000000
  0.031887  0.000000  0.026941      8.000000
  0.063774  0.000000  0.026941      4.000000
  0.031887  0.031887  0.026941      8.000000
  0.063774  0.031887  0.026941      8.000000
  0.063774  0.063774  0.026941      2.000000
 


--------------------------------------------------------------------------------------------------------




 Dimension of arrays:
   k-points           NKPTS =     12   k-points in BZ     NKDIM =     12   number of bands    NBANDS=    232
   number of dos      NEDOS =    301   number of ions     NIONS =     40
   non local maximal  LDIM  =      6   non local SUM 2l+1 LMDIM =     18
   total plane-waves  NPLWV = 345600
   max r-space proj   IRMAX =      1   max aug-charges    IRDMAX= 168293
   dimension x,y,z NGX =    60 NGY =   60 NGZ =   96
   dimension x,y,z NGXF=   120 NGYF=  120 NGZF=  192
   support grid    NGXF=   240 NGYF=  240 NGZF=  384
   ions per type =              16   7  16   1
   NGX,Y,Z   is equivalent  to a cutoff of  12.92, 12.92, 13.10 a.u.
   NGXF,Y,Z  is equivalent  to a cutoff of  25.83, 25.83, 26.19 a.u.

 SYSTEM =  unknown system                          
 POSCAR =  generated by phonopy                    

 Startparameter for this run:
   NWRITE =      2    write-flag & timer
   PREC   = accura    normal or accurate (medium, high low for compatibility)
   ISTART =      0    job   : 0-new  1-cont  2-samecut
   ICHARG =      2    charge: 1-file 2-atom 10-const
   ISPIN  =      1    spin polarized calculation?
   LNONCOLLINEAR =      F non collinear calculations
   LSORBIT =      F    spin-orbit coupling
   INIWAV =      1    electr: 0-lowe 1-rand  2-diag
   LASPH  =      F    aspherical Exc in radial PAW
 Electronic Relaxation 1
   ENCUT  =  520.0 eV  38.22 Ry    6.18 a.u.  14.36 14.36 22.66*2*pi/ulx,y,z
   ENINI  =  520.0     initial cutoff
   ENAUG  =  605.4 eV  augmentation charge cutoff
   NELM   =     60;   NELMIN=  5; NELMDL= -5     # of ELM steps 
   EDIFF  = 0.1E-07   stopping-criterion for ELM
   LREAL  =      F    real-space projection
   NLSPLINE    = F    spline interpolate recip. space projectors
   LCOMPAT=      F    compatible to vasp.4.4
   GGA_COMPAT  = T    GGA compatible to vasp.4.4-vasp.4.6
   LMAXPAW     = -100 max onsite density
   LMAXMIX     =    2 max onsite mixed and CHGCAR
   VOSKOWN=      0    Vosko Wilk Nusair interpolation
   ROPT   =    0.00000   0.00000   0.00000   0.00000
 Ionic relaxation
   EDIFFG = -.1E-04   stopping-criterion for IOM
   NSW    =    100    number of steps for IOM
   NBLOCK =      1;   KBLOCK =    100    inner block; outer block 
   IBRION =      2    ionic relax: 0-MD 1-quasi-New 2-CG
   NFREE  =      1    steps in history (QN), initial steepest desc. (CG)
   ISIF   =      2    stress and relaxation
   IWAVPR =     11    prediction:  0-non 1-charg 2-wave 3-comb
   ISYM   =      2    0-nonsym 1-usesym 2-fastsym
   LCORR  =      T    Harris-Foulkes like correction to forces

   POTIM  = 0.5000    time-step for ionic-motion
   TEIN   =    0.0    initial temperature
   TEBEG  =    0.0;   TEEND  =   0.0 temperature during run
   SMASS  =  -3.00    Nose mass-parameter (am)
   estimated Nose-frequenzy (Omega)   =  0.10E-29 period in steps = 0.13E+47 mass=  -0.136E-26a.u.
   SCALEE = 1.0000    scale energy and forces
   NPACO  =    256;   APACO  = 10.0  distance and # of slots for P.C.
   PSTRESS=    0.0 pullay stress

  Mass of Ions in am
   POMASS = 208.98 78.96 16.00 32.07
  Ionic Valenz
   ZVAL   =  15.00  6.00  6.00  6.00
  Atomic Wigner-Seitz radii
   RWIGS  =  -1.00 -1.00 -1.00 -1.00
  virtual crystal weights 
   VCA    =   1.00  1.00  1.00  1.00
   NELECT =     384.0000    total number of electrons
   NUPDOWN=      -1.0000    fix difference up-down

 DOS related values:
   EMIN   =  10.00;   EMAX   =-10.00  energy-range for DOS
   EFERMI =   0.00;   METHOD = LEGACY      
   ISMEAR =     0;   SIGMA  =   0.05  broadening in eV -4-tet -1-fermi 0-gaus

 Electronic relaxation 2 (details)
   IALGO  =     38    algorithm
   LDIAG  =      T    sub-space diagonalisation (order eigenvalues)
   LSUBROT=      F    optimize rotation matrix (better conditioning)
   TURBO    =      0    0=normal 1=particle mesh
   IRESTART =      0    0=no restart 2=restart with 2 vectors
   NREBOOT  =      0    no. of reboots
   NMIN     =      0    reboot dimension
   EREF     =   0.00    reference energy to select bands
   IMIX   =      4    mixing-type and parameters
     AMIX     =   0.40;   BMIX     =  1.00
     AMIX_MAG =   1.60;   BMIX_MAG =  1.00
     AMIN     =   0.10
     WC   =   100.;   INIMIX=   1;  MIXPRE=   1;  MAXMIX= -45

 Intra band minimization:
   WEIMIN = 0.0010     energy-eigenvalue tresh-hold
   EBREAK =  0.11E-10  absolut break condition
   DEPER  =   0.30     relativ break condition  

   TIME   =   0.40     timestep for ELM

  volume/ion in A,a.u.               =      18.17       122.62
  Fermi-wavevector in a.u.,A,eV,Ry     =   1.323460  2.500977 23.831245  1.751547
  Thomas-Fermi vector in A             =   2.453067
 
 Write flags
   LWAVE        =      F    write WAVECAR
   LDOWNSAMPLE  =      F    k-point downsampling of WAVECAR
   LCHARG       =      F    write CHGCAR
   LVTOT        =      F    write LOCPOT, total local potential
   LVHAR        =      F    write LOCPOT, Hartree potential only
   WRT_POTENTIAL= false  ! write potential to hdf5 file
   LELF         =      F    write electronic localiz. function (ELF)
   LORBIT       =      0    0 simple, 1 ext, 2 COOP (PROOUT), +10 PAW based schemes


 Dipole corrections
   LMONO      =      F    monopole corrections only (constant potential shift)
   LDIPOL     =      F    correct potential (dipole corrections)
   IDIPOL     =      0    1-x, 2-y, 3-z, 4-all directions 
   EPSILON    =  1.0000000 bulk dielectric constant
   LVACPOTAV  =      F  vacuum potentials using an averaging scheme for the charge density
   VACPOTFLAT =  0.1000000 required flatness to determine vacuum potential
 Exchange correlation treatment:
   GGA     = PE    functional components
   XC_C    = 1    coefficients multiplying the functional components
   LIBXC   =     F    Libxc                    
   VOSKOWN =     0    Vosko Wilk Nusair interpolation
   LHFCALC =     F    Hartree Fock is set to
   LHFONE  =     F    Hartree Fock one center treatment
   AEXX    =    0.0000 exact exchange contribution

 Parameters of functionals:
   PE:
     No parameter
 
 Van der Waals corrections
   IVDW    =     0    specifies the selected vdW correction

 Linear response parameters
   LEPSILON=     F    determine dielectric tensor
   LRPA    =     F    only Hartree local field effects (RPA)
   LNABLA  =     F    use nabla operator in PAW spheres
   LVEL    =     F    velocity operator in full k-point grid
   CSHIFT  =0.1000    complex shift for real part using Kramers Kronig
   OMEGAMAX=  -1.0    maximum frequency
   DEG_THRESHOLD= 0.2000000E-02 threshold for treating states as degnerate
   RTIME   =   -0.100 relaxation time in fs
  (WPLASMAI=    0.000 imaginary part of plasma frequency in eV, 0.658/RTIME)
   DFIELD  = 0.0000000 0.0000000 0.0000000 field for delta impulse in time
 
  Optional k-point grid parameters
   LKPOINTS_OPT  =     F    use optional k-point grid
   KPOINTS_OPT_MODE=     1    mode for optional k-point grid
 
 Orbital magnetization related:
   ORBITALMAG=     F  switch on orbital magnetization
   LCHIMAG   =     F  perturbation theory with respect to B field
   DQ        =  0.001000  dq finite difference perturbation B field
   LLRAUG    =     F  two centre corrections for induced B field
   LBONE     =     F  B-component reconstruction in AE one-centre
   LVGVCALC  =     T  calculate vGv susceptibility
   LVGVAPPL  =     F  apply vGv susceptibility instead of pGv for G=0

 Random number generation:
   RANDOM_GENERATOR = DEFAULT
   PCG_SEED         = not used


--------------------------------------------------------------------------------------------------------


 conjugate gradient relaxation of ions
 charge density and potential will be updated during run
 non-spin polarized calculation
 Variant of blocked Davidson
 Davidson routine will perform the subspace rotation
 perform sub-space diagonalisation
    after iterative eigenvector-optimisation
 modified Broyden-mixing scheme, WC =      100.0
 initial mixing is a Kerker type mixing with AMIX =  0.4000 and BMIX =      1.0000
 Hartree-type preconditioning will be used
 using additional bands           40
 reciprocal scheme for non local part
 use partial core corrections
 calculate Harris-corrections to forces 
   (improved forces if not selfconsistent)
 use gradient corrections 
 use of overlap-Matrix (Vanderbilt PP)
 Gauss-broadening in eV      SIGMA  =   0.05


--------------------------------------------------------------------------------------------------------


  energy-cutoff  :      520.00
  volume of cell :      726.81
      direct lattice vectors                 reciprocal lattice vectors
     7.722556663  0.000000000  0.000000000     0.129490795  0.000000000  0.000000000
     0.000000000  7.722556663  0.000000000     0.000000000  0.129490795  0.000000000
     0.000000000  0.000000000 12.187111279     0.000000000  0.000000000  0.082053899

  length of vectors
     7.722556663  7.722556663 12.187111279     0.129490795  0.129490795  0.082053899


 
 k-points in units of 2pi/SCALE and weight: K-Spacing Value to Generate K-Mesh: 0.03
   0.00000000  0.00000000  0.00000000       0.021
   0.03188711  0.00000000  0.00000000       0.083
   0.06377422  0.00000000  0.00000000       0.042
   0.03188711  0.03188711  0.00000000       0.083
   0.06377422  0.03188711  0.00000000       0.083
   0.06377422  0.06377422  0.00000000       0.021
   0.00000000  0.00000000  0.02694103       0.042
   0.03188711  0.00000000  0.02694103       0.167
   0.06377422  0.00000000  0.02694103       0.083
   0.03188711  0.03188711  0.02694103       0.167
   0.06377422  0.03188711  0.02694103       0.167
   0.06377422  0.06377422  0.02694103       0.042
 
 k-points in reciprocal lattice and weights: K-Spacing Value to Generate K-Mesh: 0.03
   0.00000000  0.00000000  0.00000000       0.021
   0.25000000  0.00000000  0.00000000       0.083
   0.50000000  0.00000000  0.00000000       0.042
   0.25000000  0.25000000  0.00000000       0.083
   0.50000000  0.25000000  0.00000000       0.083
   0.50000000  0.50000000  0.00000000       0.021
   0.00000000  0.00000000  0.33333333       0.042
   0.25000000  0.00000000  0.33333333       0.167
   0.50000000  0.00000000  0.33333333       0.083
   0.25000000  0.25000000  0.33333333       0.167
   0.50000000  0.25000000  0.33333333       0.167
   0.50000000  0.50000000  0.33333333       0.042
 
 position of ions in fractional coordinates (direct lattice) 
   0.24880489  0.24880489  0.85639666
   0.75119511  0.24880489  0.85639666
   0.24880489  0.75119511  0.85639666
   0.75119511  0.75119511  0.85639666
   0.00000000  0.00000000  0.64453736
   0.50000000  0.00000000  0.64538244
   0.00000000  0.50000000  0.64538244
   0.50000000  0.50000000  0.64631664
   0.00000000  0.00000000  0.35546264
   0.50000000  0.00000000  0.35461756
   0.00000000  0.50000000  0.35461756
   0.50000000  0.50000000  0.35368336
   0.24880489  0.24880489  0.14360334
   0.75119511  0.24880489  0.14360334
   0.24880489  0.75119511  0.14360334
   0.75119511  0.75119511  0.14360334
   0.50000000  0.00000000  0.00000000
   0.00000000  0.50000000  0.00000000
   0.50000000  0.50000000  0.00000000
   0.25033580  0.25033580  0.50000000
   0.74966420  0.25033580  0.50000000
   0.25033580  0.74966420  0.50000000
   0.74966420  0.74966420  0.50000000
   0.00000000  0.24945602  0.75035776
   0.50000000  0.24958985  0.75149007
   0.00000000  0.75054398  0.75035776
   0.50000000  0.75041015  0.75149007
   0.24945602  0.00000000  0.75035776
   0.75054398  0.00000000  0.75035776
   0.24958985  0.50000000  0.75149007
   0.75041015  0.50000000  0.75149007
   0.24945602  0.00000000  0.24964224
   0.75054398  0.00000000  0.24964224
   0.24958985  0.50000000  0.24850993
   0.75041015  0.50000000  0.24850993
   0.00000000  0.24945602  0.24964224
   0.50000000  0.24958985  0.24850993
   0.00000000  0.75054398  0.24964224
   0.50000000  0.75041015  0.24850993
   0.00000000  0.00000000  0.00000000
 
 position of ions in cartesian coordinates  (Angst):
   1.92140989  1.92140989 10.43700141
   5.80114677  1.92140989 10.43700141
   1.92140989  5.80114677 10.43700141
   5.80114677  5.80114677 10.43700141
   0.00000000  0.00000000  7.85504848
   3.86127833  0.00000000  7.86534767
   0.00000000  3.86127833  7.86534767
   3.86127833  3.86127833  7.87673278
   0.00000000  0.00000000  4.33206279
   3.86127833  0.00000000  4.32176361
   0.00000000  3.86127833  4.32176361
   3.86127833  3.86127833  4.31037850
   1.92140989  1.92140989  1.75010987
   5.80114677  1.92140989  1.75010987
   1.92140989  5.80114677  1.75010987
   5.80114677  5.80114677  1.75010987
   3.86127833  0.00000000  0.00000000
   0.00000000  3.86127833  0.00000000
   3.86127833  3.86127833  0.00000000
   1.93323239  1.93323239  6.09355564
   5.78932427  1.93323239  6.09355564
   1.93323239  5.78932427  6.09355564
   5.78932427  5.78932427  6.09355564
   0.00000000  1.92643828  9.14469358
   3.86127833  1.92747179  9.15849314
   0.00000000  5.79611839  9.14469358
   3.86127833  5.79508488  9.15849314
   1.92643828  0.00000000  9.14469358
   5.79611839  0.00000000  9.14469358
   1.92747179  3.86127833  9.15849314
   5.79508488  3.86127833  9.15849314
   1.92643828  0.00000000  3.04241770
   5.79611839  0.00000000  3.04241770
   1.92747179  3.86127833  3.02861814
   5.79508488  3.86127833  3.02861814
   0.00000000  1.92643828  3.04241770
   3.86127833  1.92747179  3.02861814
   0.00000000  5.79611839  3.04241770
   3.86127833  5.79508488  3.02861814
   0.00000000  0.00000000  0.00000000
 


--------------------------------------------------------------------------------------------------------


 k-point     1 :   0.0000 0.0000 0.0000  plane waves:   19645
 k-point     2 :   0.2500 0.0000 0.0000  plane waves:   19561
 k-point     3 :   0.5000 0.0000 0.0000  plane waves:   19576
 k-point     4 :   0.2500 0.2500 0.0000  plane waves:   19556
 k-point     5 :   0.5000 0.2500 0.0000  plane waves:   19552
 k-point     6 :   0.5000 0.5000 0.0000  plane waves:   19560
 k-point     7 :   0.0000 0.0000 0.3333  plane waves:   19593
 k-point     8 :   0.2500 0.0000 0.3333  plane waves:   19567
 k-point     9 :   0.5000 0.0000 0.3333  plane waves:   19566
 k-point    10 :   0.2500 0.2500 0.3333  plane waves:   19567
 k-point    11 :   0.5000 0.2500 0.3333  plane waves:   19552
 k-point    12 :   0.5000 0.5000 0.3333  plane waves:   19592

 maximum and minimum number of plane-waves per node :      2210     2153

 maximum number of plane-waves:     19645
 maximum index in each direction: 
   IXMAX=   14   IYMAX=   14   IZMAX=   22
   IXMIN=  -14   IYMIN=  -14   IZMIN=  -22


 parallel 3D FFT for wavefunctions:
    minimum data exchange during FFTs selected (reduces bandwidth)
 parallel 3D FFT for charge:
    minimum data exchange during FFTs selected (reduces bandwidth)


 total amount of memory used by VASP MPI-rank0    92884. kBytes
=======================================================================

   base      :      30000. kBytes
   nonl-proj :      16463. kBytes
   fftplans  :      13003. kBytes
   grid      :       8308. kBytes
   one-center:         77. kBytes
   wavefun   :      25033. kBytes
 
     INWAV:  cpu time      0.0000: real time      0.0000
 Broyden mixing: mesh for mixing (old mesh)
   NGX = 29   NGY = 29   NGZ = 45
  (NGX  =120   NGY  =120   NGZ  =192)
  gives a total of  37845 points

 initial charge density was supplied:
 charge density of overlapping atoms calculated
 number of electron     384.0000000 magnetization 
 keeping initial charge density in first step


--------------------------------------------------------------------------------------------------------


 Maximum index for augmentation-charges         5424 (set IRDMAX)


--------------------------------------------------------------------------------------------------------


 First call to EWALD:  gamma=   0.197
 Maximum number of real-space cells 3x 3x 2
 Maximum number of reciprocal cells 2x 2x 4

    FEWALD:  cpu time      0.0022: real time      0.0022


--------------------------------------- Ionic step        1  -------------------------------------------




--------------------------------------- Iteration      1(   1)  ---------------------------------------


    POTLOK:  cpu time      0.1803: real time      0.1803
    SETDIJ:  cpu time      0.7113: real time      0.7115
     EDDAV:  cpu time     31.4015: real time     31.4328
       DOS:  cpu time      0.0017: real time      0.0017
    --------------------------------------------
      LOOP:  cpu time     32.2947: real time     32.3263

 eigenvalue-minimisations  :  5568
 total energy-change (2. order) : 0.5765718E+04  (-0.1748359E+05)
 number of electron     384.0000000 magnetization 
 augmentation part      384.0000000 magnetization 

 Free energy of the ion-electron system (eV)
  ---------------------------------------------------
  alpha Z        PSCENC =      1389.84234022
  Ewald energy   TEWEN  =    -30084.09868772
  -Hartree energ DENC   =    -11003.12564593
  -exchange      EXHF   =         0.00000000
  -V(xc)+E(xc)   XCENC  =      1238.56635792
  PAW double counting   =     34040.00696010   -33495.80632930
  entropy T*S    EENTRO =        -0.00376631
  eigenvalues    EBANDS =      3338.68457359
  atomic energy  EATOM  =     40341.65184589
  Solvation  Ediel_sol  =         0.00000000
  ---------------------------------------------------
  free energy    TOTEN  =      5765.71764848 eV

  energy without entropy =     5765.72141479  energy(sigma->0) =     5765.71953164


--------------------------------------------------------------------------------------------------------




--------------------------------------- Iteration      1(   2)  ---------------------------------------


     EDDAV:  cpu time     31.4086: real time     31.4367
       DOS:  cpu time      0.0024: real time      0.0025
    --------------------------------------------
      LOOP:  cpu time     31.4110: real time     31.4392

 eigenvalue-minimisations  :  5568
 total energy-change (2. order) :-0.4756402E+04  (-0.4614138E+04)
 number of electron     384.0000000 magnetization 
 augmentation part      384.0000000 magnetization 

 Free energy of the ion-electron system (eV)
  ---------------------------------------------------
  alpha Z        PSCENC =      1389.84234022
  Ewald energy   TEWEN  =    -30084.09868772
  -Hartree energ DENC   =    -11003.12564593
  -exchange      EXHF   =         0.00000000
  -V(xc)+E(xc)   XCENC  =      1238.56635792
  PAW double counting   =     34040.00696010   -33495.80632930
  entropy T*S    EENTRO =        -0.01251507
  eigenvalues    EBANDS =     -1417.70862105
  atomic energy  EATOM  =     40341.65184589
  Solvation  Ediel_sol  =         0.00000000
  ---------------------------------------------------
  free energy    TOTEN  =      1009.31570508 eV

  energy without entropy =     1009.32822015  energy(sigma->0) =     1009.32196262


--------------------------------------------------------------------------------------------------------




--------------------------------------- Iteration      1(   3)  ---------------------------------------


     EDDAV:  cpu time     33.9915: real time     34.0230
       DOS:  cpu time      0.0016: real time      0.0017
    --------------------------------------------
      LOOP:  cpu time     33.9930: real time     34.0247

 eigenvalue-minimisations  :  6224
 total energy-change (2. order) :-0.1114998E+04  (-0.1039554E+04)
 number of electron     384.0000000 magnetization 
 augmentation part      384.0000000 magnetization 

 Free energy of the ion-electron system (eV)
  ---------------------------------------------------
  alpha Z        PSCENC =      1389.84234022
  Ewald energy   TEWEN  =    -30084.09868772
  -Hartree energ DENC   =    -11003.12564593
  -exchange      EXHF   =         0.00000000
  -V(xc)+E(xc)   XCENC  =      1238.56635792
  PAW double counting   =     34040.00696010   -33495.80632930
  entropy T*S    EENTRO =        -0.00041446
  eigenvalues    EBANDS =     -2532.71857056
  atomic energy  EATOM  =     40341.65184589
  Solvation  Ediel_sol  =         0.00000000
  ---------------------------------------------------
  free energy    TOTEN  =      -105.68214382 eV

  energy without entropy =     -105.68172936  energy(sigma->0) =     -105.68193659


--------------------------------------------------------------------------------------------------------




--------------------------------------- Iteration      1(   4)  ---------------------------------------


     EDDAV:  cpu time     36.0572: real time     36.0690
       DOS:  cpu time      0.0012: real time      0.0013
    --------------------------------------------
      LOOP:  cpu time     36.0584: real time     36.0703

 eigenvalue-minimisations  :  6736
 total energy-change (2. order) :-0.1310005E+03  (-0.1271388E+03)
 number of electron     384.0000000 magnetization 
 augmentation part      384.0000000 magnetization 

 Free energy of the ion-electron system (eV)
  ---------------------------------------------------
  alpha Z        PSCENC =      1389.84234022
  Ewald energy   TEWEN  =    -30084.09868772
  -Hartree energ DENC   =    -11003.12564593
  -exchange      EXHF   =         0.00000000
  -V(xc)+E(xc)   XCENC  =      1238.56635792
  PAW double counting   =     34040.00696010   -33495.80632930
  entropy T*S    EENTRO =        -0.00000000
  eigenvalues    EBANDS =     -2663.71949648
  atomic energy  EATOM  =     40341.65184589
  Solvation  Ediel_sol  =         0.00000000
  ---------------------------------------------------
  free energy    TOTEN  =      -236.68265528 eV

  energy without entropy =     -236.68265528  energy(sigma->0) =     -236.68265528


--------------------------------------------------------------------------------------------------------




--------------------------------------- Iteration      1(   5)  ---------------------------------------


     EDDAV:  cpu time     35.6010: real time     35.6016
       DOS:  cpu time      0.0015: real time      0.0016
    CHARGE:  cpu time      1.2881: real time      1.2881
    MIXING:  cpu time      0.0064: real time      0.0064
    --------------------------------------------
      LOOP:  cpu time     36.8970: real time     36.8978

 eigenvalue-minimisations  :  6616
 total energy-change (2. order) :-0.5620163E+01  (-0.5541989E+01)
 number of electron     384.0000005 magnetization 
 augmentation part       98.4823895 magnetization 

 Broyden mixing:
  rms(total) = 0.34190E+01    rms(broyden)= 0.34184E+01
  rms(prec ) = 0.43729E+01
  weight for this iteration     100.00

 Free energy of the ion-electron system (eV)
  ---------------------------------------------------
  alpha Z        PSCENC =      1389.84234022
  Ewald energy   TEWEN  =    -30084.09868772
  -Hartree energ DENC   =    -11003.12564593
  -exchange      EXHF   =         0.00000000
  -V(xc)+E(xc)   XCENC  =      1238.56635792
  PAW double counting   =     34040.00696010   -33495.80632930
  entropy T*S    EENTRO =        -0.00000000
  eigenvalues    EBANDS =     -2669.33965925
  atomic energy  EATOM  =     40341.65184589
  Solvation  Ediel_sol  =         0.00000000
  ---------------------------------------------------
  free energy    TOTEN  =      -242.30281806 eV

  energy without entropy =     -242.30281806  energy(sigma->0) =     -242.30281806


--------------------------------------------------------------------------------------------------------




--------------------------------------- Iteration      1(   6)  ---------------------------------------


    POTLOK:  cpu time      0.1772: real time      0.1773
    SETDIJ:  cpu time      0.7026: real time      0.7027
     EDDAV:  cpu time     40.1864: real time     40.2090
       DOS:  cpu time      0.0016: real time      0.0017
    CHARGE:  cpu time      1.3112: real time      1.3121
    MIXING:  cpu time      0.0079: real time      0.0079
    --------------------------------------------
      LOOP:  cpu time     42.3869: real time     42.4106

 eigenvalue-minimisations  :  7776
 total energy-change (2. order) : 0.3404120E+02  (-0.1408442E+02)
 number of electron     384.0000005 magnetization 
 augmentation part       95.2370492 magnetization 

 Broyden mixing:
  rms(total) = 0.13082E+01    rms(broyden)= 0.13068E+01
  rms(prec ) = 0.15681E+01
  weight for this iteration     100.00

 eigenvalues of (default mixing * dielectric matrix)
  average eigenvalue GAMMA=   0.7772
  0.7772

 Free energy of the ion-electron system (eV)
  ---------------------------------------------------
  alpha Z        PSCENC =      1389.84234022
  Ewald energy   TEWEN  =    -30084.09868772
  -Hartree energ DENC   =    -11251.62339941
  -exchange      EXHF   =         0.00000000
  -V(xc)+E(xc)   XCENC  =      1258.19535094
  PAW double counting   =     34795.52768392   -34210.44435880
  entropy T*S    EENTRO =        -0.00000000
  eigenvalues    EBANDS =     -2447.31239422
  atomic energy  EATOM  =     40341.65184589
  Solvation  Ediel_sol  =         0.00000000
  ---------------------------------------------------
  free energy    TOTEN  =      -208.26161916 eV

  energy without entropy =     -208.26161916  energy(sigma->0) =     -208.26161916


--------------------------------------------------------------------------------------------------------




--------------------------------------- Iteration      1(   7)  ---------------------------------------


    POTLOK:  cpu time      0.1761: real time      0.1762
    SETDIJ:  cpu time      0.7113: real time      0.7116
     EDDAV:  cpu time     33.5344: real time     33.5713
       DOS:  cpu time      0.0012: real time      0.0013
    CHARGE:  cpu time      1.2871: real time      1.2900
    MIXING:  cpu time      0.0068: real time      0.0068
    --------------------------------------------
      LOOP:  cpu time     35.7168: real time     35.7571

 eigenvalue-minimisations  :  6104
 total energy-change (2. order) :-0.1309040E+00  (-0.2951508E+01)
 number of electron     384.0000005 magnetization 
 augmentation part       94.9968624 magnetization 

 Broyden mixing:
  rms(total) = 0.82102E+00    rms(broyden)= 0.82101E+00
  rms(prec ) = 0.89969E+00
  weight for this iteration     100.00

 eigenvalues of (default mixing * dielectric matrix)
  average eigenvalue GAMMA=   1.1168
  1.1168  1.1168

 Free energy of the ion-electron system (eV)
  ---------------------------------------------------
  alpha Z        PSCENC =      1389.84234022
  Ewald energy   TEWEN  =    -30084.09868772
  -Hartree energ DENC   =    -11167.92295021
  -exchange      EXHF   =         0.00000000
  -V(xc)+E(xc)   XCENC  =      1255.18609897
  PAW double counting   =     35631.13327200   -35039.40352039
  entropy T*S    EENTRO =        -0.00000000
  eigenvalues    EBANDS =     -2534.78092193
  atomic energy  EATOM  =     40341.65184589
  Solvation  Ediel_sol  =         0.00000000
  ---------------------------------------------------
  free energy    TOTEN  =      -208.39252316 eV

  energy without entropy =     -208.39252316  energy(sigma->0) =     -208.39252316


--------------------------------------------------------------------------------------------------------




--------------------------------------- Iteration      1(   8)  ---------------------------------------


    POTLOK:  cpu time      0.1775: real time      0.1775
    SETDIJ:  cpu time      0.7037: real time      0.7036
     EDDAV:  cpu time     41.3148: real time     41.3448
       DOS:  cpu time      0.0016: real time      0.0017
    CHARGE:  cpu time      1.3011: real time      1.3023
    MIXING:  cpu time      0.0073: real time      0.0073
    --------------------------------------------
      LOOP:  cpu time     43.5060: real time     43.5373

 eigenvalue-minimisations  :  8072
 total energy-change (2. order) :-0.1307241E+00  (-0.5930929E+00)
 number of electron     384.0000005 magnetization 
 augmentation part       95.3355809 magnetization 

 Broyden mixing:
  rms(total) = 0.36429E+00    rms(broyden)= 0.36416E+00
  rms(prec ) = 0.42989E+00
  weight for this iteration     100.00

 eigenvalues of (default mixing * dielectric matrix)
  average eigenvalue GAMMA=   1.3217
  2.2816  0.8418  0.8418

 Free energy of the ion-electron system (eV)
  ---------------------------------------------------
  alpha Z        PSCENC =      1389.84234022
  Ewald energy   TEWEN  =    -30084.09868772
  -Hartree energ DENC   =    -11152.45996869
  -exchange      EXHF   =         0.00000000
  -V(xc)+E(xc)   XCENC  =      1254.25738184
  PAW double counting   =     36078.04365376   -35481.44232089
  entropy T*S    EENTRO =        -0.00000000
  eigenvalues    EBANDS =     -2554.31749165
  atomic energy  EATOM  =     40341.65184589
  Solvation  Ediel_sol  =         0.00000000
  ---------------------------------------------------
  free energy    TOTEN  =      -208.52324722 eV

  energy without entropy =     -208.52324722  energy(sigma->0) =     -208.52324722


--------------------------------------------------------------------------------------------------------




--------------------------------------- Iteration      1(   9)  ---------------------------------------


    POTLOK:  cpu time      0.1768: real time      0.1768
    SETDIJ:  cpu time      0.7063: real time      0.7062
     EDDAV:  cpu time     38.6233: real time     38.6507
       DOS:  cpu time      0.0018: real time      0.0019
    CHARGE:  cpu time      1.2971: real time      1.2991
    MIXING:  cpu time      0.0073: real time      0.0073
    --------------------------------------------
      LOOP:  cpu time     40.8125: real time     40.8419

 eigenvalue-minimisations  :  7392
 total energy-change (2. order) : 0.8965830E-01  (-0.6142087E-01)
 number of electron     384.0000005 magnetization 
 augmentation part       95.0437448 magnetization 

 Broyden mixing:
  rms(total) = 0.14191E+00    rms(broyden)= 0.14189E+00
  rms(prec ) = 0.16749E+00
  weight for this iteration     100.00

 eigenvalues of (default mixing * dielectric matrix)
  average eigenvalue GAMMA=   1.3263
  2.4814  1.1485  0.8377  0.8377

 Free energy of the ion-electron system (eV)
  ---------------------------------------------------
  alpha Z        PSCENC =      1389.84234022
  Ewald energy   TEWEN  =    -30084.09868772
  -Hartree energ DENC   =    -11181.63575401
  -exchange      EXHF   =         0.00000000
  -V(xc)+E(xc)   XCENC  =      1256.14488133
  PAW double counting   =     36518.19783296   -35916.74018981
  entropy T*S    EENTRO =        -0.00000000
  eigenvalues    EBANDS =     -2531.79585779
  atomic energy  EATOM  =     40341.65184589
  Solvation  Ediel_sol  =         0.00000000
  ---------------------------------------------------
  free energy    TOTEN  =      -208.43358892 eV

  energy without entropy =     -208.43358892  energy(sigma->0) =     -208.43358892


--------------------------------------------------------------------------------------------------------




--------------------------------------- Iteration      1(  10)  ---------------------------------------


    POTLOK:  cpu time      0.1768: real time      0.1771
    SETDIJ:  cpu time      0.7143: real time      0.7147
     EDDAV:  cpu time     37.1849: real time     37.1986
       DOS:  cpu time      0.0015: real time      0.0016
    CHARGE:  cpu time      1.2935: real time      1.2937
    MIXING:  cpu time      0.0071: real time      0.0071
    --------------------------------------------
      LOOP:  cpu time     39.3780: real time     39.3927

 eigenvalue-minimisations  :  7024
 total energy-change (2. order) : 0.7800735E-02  (-0.1597499E-01)
 number of electron     384.0000005 magnetization 
 augmentation part       95.0427034 magnetization 

 Broyden mixing:
  rms(total) = 0.35848E-01    rms(broyden)= 0.35835E-01
  rms(prec ) = 0.37674E-01
  weight for this iteration     100.00

 eigenvalues of (default mixing * dielectric matrix)
  average eigenvalue GAMMA=   1.1799
  2.4337  1.0840  0.8381  0.8381  0.7058

 Free energy of the ion-electron system (eV)
  ---------------------------------------------------
  alpha Z        PSCENC =      1389.84234022
  Ewald energy   TEWEN  =    -30084.09868772
  -Hartree energ DENC   =    -11174.36694548
  -exchange      EXHF   =         0.00000000
  -V(xc)+E(xc)   XCENC  =      1255.88524799
  PAW double counting   =     36666.91114514   -36065.31738832
  entropy T*S    EENTRO =        -0.00000000
  eigenvalues    EBANDS =     -2538.93334591
  atomic energy  EATOM  =     40341.65184589
  Solvation  Ediel_sol  =         0.00000000
  ---------------------------------------------------
  free energy    TOTEN  =      -208.42578818 eV

  energy without entropy =     -208.42578818  energy(sigma->0) =     -208.42578818


--------------------------------------------------------------------------------------------------------




--------------------------------------- Iteration      1(  11)  ---------------------------------------


    POTLOK:  cpu time      0.1773: real time      0.1774
    SETDIJ:  cpu time      0.7131: real time      0.7131
     EDDAV:  cpu time     37.6065: real time     37.6293
       DOS:  cpu time      0.0019: real time      0.0021
    CHARGE:  cpu time      1.3059: real time      1.3074
    MIXING:  cpu time      0.0068: real time      0.0068
    --------------------------------------------
      LOOP:  cpu time     39.8114: real time     39.8361

 eigenvalue-minimisations  :  7128
 total energy-change (2. order) :-0.2069264E-02  (-0.2055149E-02)
 number of electron     384.0000005 magnetization 
 augmentation part       95.0536676 magnetization 

 Broyden mixing:
  rms(total) = 0.32244E-01    rms(broyden)= 0.32242E-01
  rms(prec ) = 0.34714E-01
  weight for this iteration     100.00

 eigenvalues of (default mixing * dielectric matrix)
  average eigenvalue GAMMA=   1.3782
  2.1568  1.6543  1.6543  0.8312  0.8312  1.1415

 Free energy of the ion-electron system (eV)
  ---------------------------------------------------
  alpha Z        PSCENC =      1389.84234022
  Ewald energy   TEWEN  =    -30084.09868772
  -Hartree energ DENC   =    -11174.15308448
  -exchange      EXHF   =         0.00000000
  -V(xc)+E(xc)   XCENC  =      1255.89070487
  PAW double counting   =     36643.87177349   -36042.67181634
  entropy T*S    EENTRO =        -0.00000000
  eigenvalues    EBANDS =     -2538.76093339
  atomic energy  EATOM  =     40341.65184589
  Solvation  Ediel_sol  =         0.00000000
  ---------------------------------------------------
  free energy    TOTEN  =      -208.42785745 eV

  energy without entropy =     -208.42785745  energy(sigma->0) =     -208.42785745


--------------------------------------------------------------------------------------------------------




--------------------------------------- Iteration      1(  12)  ---------------------------------------


    POTLOK:  cpu time      0.1769: real time      0.1771
    SETDIJ:  cpu time      0.7119: real time      0.7121
     EDDAV:  cpu time     40.1365: real time     40.1752
       DOS:  cpu time      0.0022: real time      0.0023
    CHARGE:  cpu time      1.3054: real time      1.3078
    MIXING:  cpu time      0.0075: real time      0.0075
    --------------------------------------------
      LOOP:  cpu time     42.3404: real time     42.3821

 eigenvalue-minimisations  :  7776
 total energy-change (2. order) :-0.7863500E-03  (-0.7998749E-03)
 number of electron     384.0000005 magnetization 
 augmentation part       95.0267288 magnetization 

 Broyden mixing:
  rms(total) = 0.17159E-01    rms(broyden)= 0.17154E-01
  rms(prec ) = 0.20260E-01
  weight for this iteration     100.00

 eigenvalues of (default mixing * dielectric matrix)
  average eigenvalue GAMMA=   1.3994
  2.4997  2.3933  0.8182  0.8182  1.1429  1.1429  0.9808

 Free energy of the ion-electron system (eV)
  ---------------------------------------------------
  alpha Z        PSCENC =      1389.84234022
  Ewald energy   TEWEN  =    -30084.09868772
  -Hartree energ DENC   =    -11175.09696721
  -exchange      EXHF   =         0.00000000
  -V(xc)+E(xc)   XCENC  =      1255.99686059
  PAW double counting   =     36620.23629066   -36019.78909701
  entropy T*S    EENTRO =        -0.00000000
  eigenvalues    EBANDS =     -2537.17122923
  atomic energy  EATOM  =     40341.65184589
  Solvation  Ediel_sol  =         0.00000000
  ---------------------------------------------------
  free energy    TOTEN  =      -208.42864380 eV

  energy without entropy =     -208.42864380  energy(sigma->0) =     -208.42864380


--------------------------------------------------------------------------------------------------------




--------------------------------------- Iteration      1(  13)  ---------------------------------------


    POTLOK:  cpu time      0.1764: real time      0.1766
    SETDIJ:  cpu time      0.7099: real time      0.7101
     EDDAV:  cpu time     35.2269: real time     35.2330
       DOS:  cpu time      0.0018: real time      0.0019
    CHARGE:  cpu time      1.3051: real time      1.3054
    MIXING:  cpu time      0.0068: real time      0.0068
    --------------------------------------------
      LOOP:  cpu time     37.4269: real time     37.4338

 eigenvalue-minimisations  :  6528
 total energy-change (2. order) : 0.1371652E-03  (-0.9491058E-04)
 number of electron     384.0000005 magnetization 
 augmentation part       95.0281581 magnetization 

 Broyden mixing:
  rms(total) = 0.76872E-02    rms(broyden)= 0.76868E-02
  rms(prec ) = 0.87231E-02
  weight for this iteration     100.00

 eigenvalues of (default mixing * dielectric matrix)
  average eigenvalue GAMMA=   1.3965
  2.6137  2.5069  1.2160  0.9672  0.8291  0.8291  1.1048  1.1048

 Free energy of the ion-electron system (eV)
  ---------------------------------------------------
  alpha Z        PSCENC =      1389.84234022
  Ewald energy   TEWEN  =    -30084.09868772
  -Hartree energ DENC   =    -11174.53553769
  -exchange      EXHF   =         0.00000000
  -V(xc)+E(xc)   XCENC  =      1255.97508152
  PAW double counting   =     36615.13589184   -36014.98224590
  entropy T*S    EENTRO =        -0.00000000
  eigenvalues    EBANDS =     -2537.41719481
  atomic energy  EATOM  =     40341.65184589
  Solvation  Ediel_sol  =         0.00000000
  ---------------------------------------------------
  free energy    TOTEN  =      -208.42850663 eV

  energy without entropy =     -208.42850663  energy(sigma->0) =     -208.42850663


--------------------------------------------------------------------------------------------------------




--------------------------------------- Iteration      1(  14)  ---------------------------------------


    POTLOK:  cpu time      0.1764: real time      0.1766
    SETDIJ:  cpu time      0.7198: real time      0.7198
     EDDAV:  cpu time     35.4311: real time     35.4513
       DOS:  cpu time      0.0014: real time      0.0015
    CHARGE:  cpu time      1.3139: real time      1.3150
    MIXING:  cpu time      0.0068: real time      0.0068
    --------------------------------------------
      LOOP:  cpu time     37.6494: real time     37.6710

 eigenvalue-minimisations  :  6584
 total energy-change (2. order) : 0.1573226E-04  (-0.2482469E-04)
 number of electron     384.0000005 magnetization 
 augmentation part       95.0310527 magnetization 

 Broyden mixing:
  rms(total) = 0.41396E-02    rms(broyden)= 0.41390E-02
  rms(prec ) = 0.47347E-02
  weight for this iteration     100.00

 eigenvalues of (default mixing * dielectric matrix)
  average eigenvalue GAMMA=   1.3255
  2.5153  2.5153  1.3216  1.2065  1.2065  0.9711  0.8288  0.8288  0.5355

 Free energy of the ion-electron system (eV)
  ---------------------------------------------------
  alpha Z        PSCENC =      1389.84234022
  Ewald energy   TEWEN  =    -30084.09868772
  -Hartree energ DENC   =    -11174.51482608
  -exchange      EXHF   =         0.00000000
  -V(xc)+E(xc)   XCENC  =      1255.97175209
  PAW double counting   =     36611.22775949   -36011.07253303
  entropy T*S    EENTRO =        -0.00000000
  eigenvalues    EBANDS =     -2537.43614177
  atomic energy  EATOM  =     40341.65184589
  Solvation  Ediel_sol  =         0.00000000
  ---------------------------------------------------
  free energy    TOTEN  =      -208.42849090 eV

  energy without entropy =     -208.42849090  energy(sigma->0) =     -208.42849090


--------------------------------------------------------------------------------------------------------




--------------------------------------- Iteration      1(  15)  ---------------------------------------


    POTLOK:  cpu time      0.1761: real time      0.1762
    SETDIJ:  cpu time      0.7234: real time      0.7246
     EDDAV:  cpu time     41.7260: real time     41.7285
       DOS:  cpu time      0.0017: real time      0.0018
    CHARGE:  cpu time      1.2843: real time      1.2844
    MIXING:  cpu time      0.0112: real time      0.0112
    --------------------------------------------
      LOOP:  cpu time     43.9227: real time     43.9268

 eigenvalue-minimisations  :  8160
 total energy-change (2. order) : 0.1512021E-04  (-0.4733652E-05)
 number of electron     384.0000005 magnetization 
 augmentation part       95.0326303 magnetization 

 Broyden mixing:
  rms(total) = 0.21066E-02    rms(broyden)= 0.21062E-02
  rms(prec ) = 0.22977E-02
  weight for this iteration     100.00

 eigenvalues of (default mixing * dielectric matrix)
  average eigenvalue GAMMA=   1.3743
  2.5913  2.5913  1.4767  1.4767  1.2566  0.9467  0.8281  0.8281  0.8735  0.8735

 Free energy of the ion-electron system (eV)
  ---------------------------------------------------
  alpha Z        PSCENC =      1389.84234022
  Ewald energy   TEWEN  =    -30084.09868772
  -Hartree energ DENC   =    -11174.44177841
  -exchange      EXHF   =         0.00000000
  -V(xc)+E(xc)   XCENC  =      1255.96593366
  PAW double counting   =     36610.39931284   -36010.22231691
  entropy T*S    EENTRO =        -0.00000000
  eigenvalues    EBANDS =     -2537.52512536
  atomic energy  EATOM  =     40341.65184589
  Solvation  Ediel_sol  =         0.00000000
  ---------------------------------------------------
  free energy    TOTEN  =      -208.42847578 eV

  energy without entropy =     -208.42847578  energy(sigma->0) =     -208.42847578


--------------------------------------------------------------------------------------------------------




--------------------------------------- Iteration      1(  16)  ---------------------------------------


    POTLOK:  cpu time      0.1772: real time      0.1773
    SETDIJ:  cpu time      0.7099: real time      0.7099
     EDDAV:  cpu time     37.1198: real time     37.1350
       DOS:  cpu time      0.0017: real time      0.0018
    CHARGE:  cpu time      1.3025: real time      1.3038
    MIXING:  cpu time      0.0075: real time      0.0075
    --------------------------------------------
[...]
    168       4.8502      2.00000
    169       5.0139      2.00000
    170       5.0167      2.00000
    171       5.0305      2.00000
    172       5.0305      2.00000
    173       5.1984      2.00000
    174       5.1989      2.00000
    175       5.2089      2.00000
    176       5.2089      2.00000
    177       5.3854      2.00000
    178       5.3854      2.00000
    179       5.3965      2.00000
    180       5.4042      2.00000
    181       5.8117      2.00000
    182       5.8355      2.00000
    183       5.8355      2.00000
    184       5.8577      2.00000
    185       6.3776      2.00000
    186       6.3776      2.00000
    187       6.4048      2.00000
    188       6.4281      2.00000
    189       6.4972      2.00000
    190       6.4972      2.00000
    191       6.5148      2.00000
    192       6.5336      2.00000
    193       8.6037      0.00000
    194       8.6362      0.00000
    195       8.6362      0.00000
    196       8.6708      0.00000
    197       9.3958      0.00000
    198       9.4279      0.00000
    199       9.4279      0.00000
    200       9.4598      0.00000
    201       9.7886      0.00000
    202       9.7984      0.00000
    203       9.8184      0.00000
    204       9.8184      0.00000
    205      10.1119      0.00000
    206      10.1309      0.00000
    207      10.1552      0.00000
    208      10.1552      0.00000
    209      10.4680      0.00000
    210      10.4680      0.00000
    211      10.5097      0.00000
    212      10.5355      0.00000
    213      10.5387      0.00000
    214      10.5614      0.00000
    215      10.5614      0.00000
    216      10.5850      0.00000
    217      11.4399      0.00000
    218      11.4399      0.00000
    219      11.4653      0.00000
    220      11.4668      0.00000
    221      11.5495      0.00000
    222      11.5495      0.00000
    223      11.5513      0.00000
    224      11.5639      0.00000
    225      12.0735      0.00000
    226      12.1096      0.00000
    227      12.1096      0.00000
    228      12.1433      0.00000
    229      12.1663      0.00000
    230      12.1664      0.00000
    231      12.2272      0.00000
    232      12.2303      0.00000


--------------------------------------------------------------------------------------------------------


 soft charge-density along one line, spin component           1
         0         1         2         3         4         5         6         7         8         9
 total charge-density along one line
 
 pseudopotential strength for first ion, spin component:           1
-17.283   0.001   0.001   0.001  -0.000   3.670  -0.000  -0.000
  0.001 -17.265   0.001  -0.001  -0.001  -0.000   3.662  -0.000
  0.001   0.001 -17.290   0.001   0.000  -0.000  -0.000   3.676
  0.001  -0.001   0.001 -17.265   0.001  -0.000   0.000  -0.000
 -0.000  -0.001   0.000   0.001 -17.265   0.000   0.001  -0.000
  3.670  -0.000  -0.000  -0.000   0.000   5.937   0.000   0.000
 -0.000   3.662  -0.000   0.000   0.001   0.000   5.939   0.000
 -0.000  -0.000   3.676  -0.000  -0.000   0.000   0.000   5.938
 -0.000   0.000  -0.000   3.662  -0.001   0.000  -0.000   0.000
  0.000   0.001  -0.000  -0.001   3.661   0.000  -0.000   0.000
 -0.000   0.000   0.004   0.000   0.000   0.000  -0.000   0.004
  0.000  -0.000  -0.005  -0.000   0.000  -0.000   0.000  -0.005
  0.000  -0.018  -0.000  -0.000  -0.000   0.000   0.004   0.000
 -0.000   0.000  -0.020   0.000   0.000  -0.000   0.000   0.003
  0.000  -0.000  -0.000  -0.018   0.000   0.000  -0.000   0.000
  0.000  -0.029  -0.000  -0.000  -0.000   0.000   0.003   0.000
 -0.000   0.000  -0.032   0.000   0.000  -0.000   0.000   0.000
  0.000  -0.000  -0.000  -0.029   0.000   0.000  -0.000   0.000
 total augmentation occupancy for first ion, spin component:           1
  1.999   0.000   0.000   0.000   0.000  -0.004   0.000   0.000   0.000   0.000  -0.000  -0.000  -0.000  -0.000  -0.000   0.000
  0.000   1.998  -0.000  -0.000  -0.000   0.000  -0.005   0.000  -0.000  -0.000   0.000   0.000   0.036  -0.000  -0.000  -0.013
  0.000  -0.000   2.000  -0.000  -0.000   0.000   0.000  -0.001   0.000   0.000   0.001   0.001   0.000   0.034   0.000  -0.000
  0.000  -0.000  -0.000   1.998   0.000   0.000  -0.000   0.000  -0.005   0.000   0.000   0.000  -0.000  -0.000   0.036   0.000
  0.000  -0.000  -0.000   0.000   1.998   0.000  -0.000   0.000   0.000  -0.006   0.000   0.000   0.000   0.000  -0.000  -0.000
 -0.004   0.000   0.000   0.000   0.000   0.022   0.000   0.000   0.000   0.000  -0.000  -0.000   0.002  -0.001   0.002  -0.000
  0.000  -0.005   0.000  -0.000  -0.000   0.000   0.049   0.000  -0.001  -0.000   0.000   0.001  -0.081   0.000  -0.002   0.012
  0.000   0.000  -0.001   0.000   0.000   0.000   0.000   0.017   0.000  -0.000   0.012  -0.004  -0.001   0.005  -0.001   0.000
  0.000  -0.000   0.000  -0.005   0.000   0.000  -0.001   0.000   0.049   0.000   0.000   0.001  -0.002   0.000  -0.081   0.000
  0.000  -0.000   0.000   0.000  -0.006   0.000  -0.000  -0.000   0.000   0.054   0.000  -0.000   0.001   0.000  -0.001  -0.000
 -0.000   0.000   0.001   0.000   0.000  -0.000   0.000   0.012   0.000   0.000   2.046  -0.025  -0.001   0.174  -0.001  -0.000
 -0.000   0.000   0.001   0.000   0.000  -0.000   0.001  -0.004   0.001  -0.000  -0.025   0.032   0.001  -0.080   0.001  -0.000
 -0.000   0.036   0.000  -0.000   0.000   0.002  -0.081  -0.001  -0.002   0.001  -0.001   0.001   0.912   0.006  -0.006  -0.085
 -0.000  -0.000   0.034  -0.000   0.000  -0.001   0.000   0.005   0.000   0.000   0.174  -0.080   0.006   0.991   0.006  -0.001
 -0.000  -0.000   0.000   0.036  -0.000   0.002  -0.002  -0.001  -0.081  -0.001  -0.001   0.001  -0.006   0.006   0.912   0.001
  0.000  -0.013  -0.000   0.000  -0.000  -0.000   0.012   0.000   0.000  -0.000  -0.000  -0.000  -0.085  -0.001   0.001   0.010
  0.000   0.000  -0.020   0.000  -0.000   0.000   0.000   0.000   0.000   0.000  -0.012   0.008  -0.001  -0.087  -0.001   0.000
  0.000   0.000  -0.000  -0.013   0.000  -0.000   0.000   0.000   0.012   0.000  -0.000  -0.000   0.001  -0.001  -0.085  -0.000


------------------------ aborting loop because EDIFF is reached ----------------------------------------


    CHARGE:  cpu time      1.3134: real time      1.3143
    FORLOC:  cpu time      0.0175: real time      0.0175
    FORNL :  cpu time      9.1861: real time      9.1887
    STRESS:  cpu time     20.0544: real time     20.0600
    FORCOR:  cpu time      0.1805: real time      0.1806
    FORHAR:  cpu time      0.0589: real time      0.0590
    MIXING:  cpu time      0.0048: real time      0.0048
    OFIELD:  cpu time      0.0001: real time      0.0001

  FORCE on cell =-STRESS in cart. coord.  units (eV):
  Direction    XX          YY          ZZ          XY          YZ          ZX
  --------------------------------------------------------------------------------------
  Alpha Z  1389.84234  1389.84234  1389.84234
  Ewald   -8500.76085 -8500.76085-13082.69006    -0.00000     0.00000    -0.00000
  Hartree  5095.45804  5095.45804   983.48635    -0.00000    -0.00000    -0.00000
  E(xc)   -1829.70963 -1829.70963 -1831.07054     0.00000     0.00000    -0.00000
  Local   -4864.98532 -4864.98532  3841.24620     0.00000     0.00000     0.00000
  n-local  1585.49309  1592.05649  1597.92821     0.60997    -0.05704     0.12815
  augment  2176.50773  2176.50773  2160.70469     0.00000     0.00000     0.00000
  Kinetic  4960.35628  4968.59750  4955.57298    -3.82477     0.46481    -0.58546
  Fock        0.00000     0.00000     0.00000     0.00000     0.00000     0.00000
  -------------------------------------------------------------------------------------
  Total      19.60399    19.60399    15.02017     0.00000     0.00000     0.00000
  in kB      43.21476    43.21476    33.11025     0.00000     0.00000     0.00000
  external pressure =       39.85 kB  Pullay stress =        0.00 kB


 VOLUME and BASIS-vectors are now :
 -----------------------------------------------------------------------------
  energy-cutoff  :      520.00
  volume of cell :      726.81
      direct lattice vectors                 reciprocal lattice vectors
     7.722556663  0.000000000  0.000000000     0.129490795  0.000000000  0.000000000
     0.000000000  7.722556663  0.000000000     0.000000000  0.129490795  0.000000000
     0.000000000  0.000000000 12.187111279     0.000000000  0.000000000  0.082053899

  length of vectors
     7.722556663  7.722556663 12.187111279     0.129490795  0.129490795  0.082053899


 FORCES acting on ions
    electron-ion (+dipol)            ewald-force                    non-local-force                 convergence-correction
 -----------------------------------------------------------------------------------------------
   -.672E+01 -.672E+01 -.429E+03   0.659E+01 0.659E+01 0.440E+03   0.124E+00 0.124E+00 -.112E+02   0.344E-07 0.344E-07 0.344E-06
   0.672E+01 -.672E+01 -.429E+03   -.659E+01 0.659E+01 0.440E+03   -.124E+00 0.124E+00 -.112E+02   -.344E-07 0.344E-07 0.344E-06
   -.672E+01 0.672E+01 -.429E+03   0.659E+01 -.659E+01 0.440E+03   0.124E+00 -.124E+00 -.112E+02   0.344E-07 -.344E-07 0.344E-06
   0.672E+01 0.672E+01 -.429E+03   -.659E+01 -.659E+01 0.440E+03   -.124E+00 -.124E+00 -.112E+02   -.344E-07 -.344E-07 0.344E-06
   0.432E-14 -.831E-12 0.461E+03   -.568E-13 0.000E+00 -.472E+03   0.168E-17 0.568E-18 0.111E+02   0.725E-11 -.574E-12 0.716E-07
   0.719E-12 -.249E-12 0.459E+03   0.000E+00 -.480E-13 -.470E+03   0.202E-17 -.128E-18 0.111E+02   -.748E-11 -.864E-12 0.364E-06
   -.127E-13 -.484E-12 0.459E+03   -.114E-12 -.853E-13 -.470E+03   -.234E-18 0.415E-19 0.111E+02   0.105E-10 0.917E-12 0.364E-06
   0.701E-12 0.305E-11 0.459E+03   0.284E-13 0.342E-13 -.470E+03   0.660E-19 0.210E-19 0.111E+02   -.108E-10 0.108E-11 0.675E-06
   -.410E-13 0.892E-12 -.461E+03   0.284E-13 0.568E-13 0.472E+03   -.159E-17 -.408E-18 -.111E+02   -.446E-11 0.723E-12 -.716E-07
   0.699E-12 0.135E-12 -.459E+03   -.284E-13 0.178E-13 0.470E+03   -.114E-17 0.227E-18 -.111E+02   0.432E-11 0.734E-12 -.364E-06
   -.196E-13 0.956E-12 -.459E+03   0.199E-12 0.284E-13 0.470E+03   0.292E-18 -.601E-19 -.111E+02   -.320E-11 -.790E-12 -.364E-06
   0.695E-12 0.170E-11 -.459E+03   -.284E-13 -.142E-13 0.470E+03   0.140E-18 0.651E-19 -.111E+02   0.309E-11 -.128E-11 -.675E-06
   -.672E+01 -.672E+01 0.429E+03   0.659E+01 0.659E+01 -.440E+03   0.124E+00 0.124E+00 0.112E+02   0.344E-07 0.344E-07 -.344E-06
   0.672E+01 -.672E+01 0.429E+03   -.659E+01 0.659E+01 -.440E+03   -.124E+00 0.124E+00 0.112E+02   -.344E-07 0.344E-07 -.344E-06
   -.672E+01 0.672E+01 0.429E+03   0.659E+01 -.659E+01 -.440E+03   0.124E+00 -.124E+00 0.112E+02   0.344E-07 -.344E-07 -.344E-06
   0.672E+01 0.672E+01 0.429E+03   -.659E+01 -.659E+01 -.440E+03   -.124E+00 -.124E+00 0.112E+02   -.344E-07 -.344E-07 -.344E-06
   0.360E-13 0.152E-13 0.691E-12   0.114E-12 0.142E-13 0.178E-13   0.116E-27 -.722E-27 -.573E-27   0.318E-11 0.763E-13 0.425E-11
   0.119E-13 0.428E-13 -.108E-12   0.000E+00 0.284E-13 0.604E-13   -.723E-27 -.140E-27 -.845E-27   0.427E-12 -.773E-13 0.521E-11
   0.359E-13 -.150E-11 -.179E-11   0.853E-13 0.000E+00 0.817E-13   0.248E-27 0.612E-27 0.813E-27   -.444E-12 0.761E-13 0.499E-11
   -.206E+01 -.206E+01 -.818E-07   0.207E+01 0.207E+01 0.268E-14   -.102E-01 -.102E-01 0.107E-19   -.954E-07 -.954E-07 -.614E-11
   0.206E+01 -.206E+01 0.165E-11   -.207E+01 0.207E+01 -.470E-13   0.102E-01 -.102E-01 0.137E-20   0.954E-07 -.954E-07 -.105E-10
   -.206E+01 0.206E+01 0.377E-11   0.207E+01 -.207E+01 -.186E-13   -.102E-01 0.102E-01 -.788E-20   -.954E-07 0.954E-07 -.588E-11
   0.206E+01 0.206E+01 0.818E-07   -.207E+01 -.207E+01 0.983E-14   0.102E-01 0.102E-01 -.357E-20   0.954E-07 0.954E-07 -.948E-11
   -.288E-13 -.260E+01 0.893E+01   0.568E-13 0.261E+01 -.908E+01   -.285E-18 -.108E-01 0.146E+00   0.300E-11 0.248E-06 0.317E-06
   0.261E-12 -.200E+01 0.374E+01   0.284E-13 0.200E+01 -.360E+01   -.612E-18 0.708E-03 -.140E+00   -.309E-11 0.175E-06 0.726E-06
   -.235E-13 0.260E+01 0.893E+01   0.568E-13 -.261E+01 -.908E+01   -.849E-19 0.108E-01 0.146E+00   0.264E-11 -.248E-06 0.317E-06
   0.257E-12 0.200E+01 0.374E+01   -.142E-13 -.200E+01 -.360E+01   -.327E-18 -.708E-03 -.140E+00   -.275E-11 -.175E-06 0.726E-06
   -.260E+01 0.111E-13 0.893E+01   0.261E+01 -.711E-14 -.908E+01   -.108E-01 -.153E-18 0.146E+00   0.248E-06 0.598E-12 0.317E-06
   0.260E+01 -.390E-12 0.893E+01   -.261E+01 -.568E-13 -.908E+01   0.108E-01 0.204E-18 0.146E+00   -.248E-06 0.154E-12 0.317E-06
   -.200E+01 0.486E-12 0.374E+01   0.200E+01 -.213E-13 -.360E+01   0.708E-03 -.101E-18 -.140E+00   0.175E-06 0.896E-13 0.726E-06
   0.200E+01 -.164E-11 0.374E+01   -.200E+01 0.000E+00 -.360E+01   -.708E-03 -.439E-19 -.140E+00   -.175E-06 0.413E-12 0.726E-06
   -.260E+01 0.510E-12 -.893E+01   0.261E+01 -.249E-13 0.908E+01   -.108E-01 -.153E-18 -.146E+00   0.248E-06 0.304E-12 -.317E-06
   0.260E+01 -.626E-13 -.893E+01   -.261E+01 0.000E+00 0.908E+01   0.108E-01 0.272E-18 -.146E+00   -.248E-06 0.112E-11 -.317E-06
   -.200E+01 0.668E-12 -.374E+01   0.200E+01 0.000E+00 0.360E+01   0.708E-03 -.116E-19 0.140E+00   0.175E-06 0.788E-13 -.726E-06
   0.200E+01 0.358E-11 -.374E+01   -.200E+01 -.142E-13 0.360E+01   -.708E-03 0.130E-18 0.140E+00   -.175E-06 -.779E-12 -.726E-06
   0.933E-13 -.260E+01 -.893E+01   0.284E-13 0.261E+01 0.908E+01   0.345E-19 -.108E-01 -.146E+00   -.369E-11 0.248E-06 -.317E-06
   0.255E-12 -.200E+01 -.374E+01   0.568E-13 0.200E+01 0.360E+01   0.333E-18 0.708E-03 0.140E+00   0.357E-11 0.175E-06 -.726E-06
   0.686E-13 0.260E+01 -.893E+01   0.568E-13 -.261E+01 0.908E+01   -.264E-18 0.108E-01 -.146E+00   -.293E-11 -.248E-06 -.317E-06
   0.284E-12 0.200E+01 -.374E+01   0.142E-13 -.200E+01 0.360E+01   0.296E-18 -.708E-03 0.140E+00   0.282E-11 -.175E-06 -.726E-06
   0.126E-13 0.769E-14 -.174E-12   0.284E-13 -.284E-13 0.640E-13   0.325E-26 0.167E-26 0.207E-26   -.333E-11 0.373E-12 0.468E-11
 -----------------------------------------------------------------------------------------------
   0.217E-11 0.836E-10 -.315E-09   0.853E-13 -.195E-13 0.426E-12   -.154E-16 0.206E-17 0.358E-14   0.703E-12 -.857E-11 0.911E-10
 
 
 POSITION                                       TOTAL-FORCE (eV/Angst)
 -----------------------------------------------------------------------------------
      1.92141      1.92141     10.43700         0.000001      0.000001     -0.000006
      5.80115      1.92141     10.43700        -0.000001      0.000001     -0.000006
      1.92141      5.80115     10.43700         0.000001     -0.000001     -0.000006
      5.80115      5.80115     10.43700        -0.000001     -0.000001     -0.000006
      0.00000      0.00000      7.85505        -0.000000     -0.000000      0.000006
      3.86128      0.00000      7.86535        -0.000000     -0.000000      0.000002
      0.00000      3.86128      7.86535         0.000000     -0.000000      0.000002
      3.86128      3.86128      7.87673        -0.000000     -0.000000     -0.000001
      0.00000      0.00000      4.33206        -0.000000     -0.000000     -0.000006
      3.86128      0.00000      4.32176         0.000000     -0.000000     -0.000002
      0.00000      3.86128      4.32176         0.000000     -0.000000     -0.000002
      3.86128      3.86128      4.31038         0.000000     -0.000000      0.000001
      1.92141      1.92141      1.75011         0.000001      0.000001      0.000006
      5.80115      1.92141      1.75011        -0.000001      0.000001      0.000006
      1.92141      5.80115      1.75011         0.000001     -0.000001      0.000006
      5.80115      5.80115      1.75011        -0.000001     -0.000001      0.000006
      3.86128      0.00000     12.18711         0.000000     -0.000000     -0.000000
      0.00000      3.86128     12.18711         0.000000     -0.000000     -0.000000
      3.86128      3.86128     12.18711         0.000000     -0.000000     -0.000000
      1.93323      1.93323      6.09356         0.000004      0.000004     -0.000000
      5.78932      1.93323      6.09356        -0.000004      0.000004     -0.000000
      1.93323      5.78932      6.09356         0.000004     -0.000004     -0.000000
      5.78932      5.78932      6.09356        -0.000004     -0.000004     -0.000000
      0.00000      1.92644      9.14469         0.000000     -0.000004      0.000007
      3.86128      1.92747      9.15849         0.000000     -0.000004     -0.000001
      0.00000      5.79612      9.14469         0.000000      0.000004      0.000007
      3.86128      5.79509      9.15849        -0.000000      0.000004     -0.000001
      1.92644      0.00000      9.14469        -0.000004     -0.000000      0.000007
      5.79612      0.00000      9.14469         0.000004     -0.000000      0.000007
      1.92747      3.86128      9.15849        -0.000004     -0.000000     -0.000001
      5.79509      3.86128      9.15849         0.000004     -0.000000     -0.000001
      1.92644      0.00000      3.04242        -0.000004     -0.000000     -0.000007
      5.79612      0.00000      3.04242         0.000004     -0.000000     -0.000007
      1.92747      3.86128      3.02862        -0.000004     -0.000000      0.000001
      5.79509      3.86128      3.02862         0.000004     -0.000000      0.000001
      0.00000      1.92644      3.04242         0.000000     -0.000004     -0.000007
      3.86128      1.92747      3.02862         0.000000     -0.000004      0.000001
      0.00000      5.79612      3.04242         0.000000      0.000004     -0.000007
      3.86128      5.79509      3.02862         0.000000      0.000004      0.000001
      0.00000      0.00000     12.18711        -0.000000     -0.000000     -0.000000
 -----------------------------------------------------------------------------------
    total drift:                                0.000000      0.000000     -0.000000


--------------------------------------------------------------------------------------------------------



  FREE ENERGIE OF THE ION-ELECTRON SYSTEM (eV)
  ---------------------------------------------------
  free  energy   TOTEN  =      -208.42847131 eV

  energy  without entropy=     -208.42847131  energy(sigma->0) =     -208.42847131
 
 d Force = 0.3589356E-11[ 0.995E-12, 0.618E-11]  d Energy = 0.1218723E-09-0.118E-09
 d Force = 0.5231133E-04[ 0.523E-04, 0.523E-04]  d Ewald  = 0.5231157E-04-0.236E-09


--------------------------------------------------------------------------------------------------------


    POTLOK:  cpu time      0.8959: real time      0.8959


--------------------------------------------------------------------------------------------------------




--------------------------------------------------------------------------------------------------------


  
 reached required accuracy - stopping structural energy minimisation
     LOOP+:  cpu time    150.5072: real time    150.5851
    4ORBIT:  cpu time      0.0000: real time      0.0000

 total amount of memory used by VASP MPI-rank0    92884. kBytes
=======================================================================

   base      :      30000. kBytes
   nonl-proj :      16463. kBytes
   fftplans  :      13003. kBytes
   grid      :       8308. kBytes
   one-center:         77. kBytes
   wavefun   :      25033. kBytes
 
  
  
 General timing and accounting informations for this job:
 ========================================================
  
                  Total CPU time used (sec):     1681.058
                            User time (sec):     1664.769
                          System time (sec):       16.289
                         Elapsed time (sec):     1682.056
  
                   Maximum memory used (kb):      176252.
                   Average memory used (kb):          N/A
  
                          Minor page faults:       794966
                          Major page faults:            9
                 Voluntary context switches:          182
