<?xml version="1.0" encoding="ISO-8859-1"?>
<modeling>
 <generator>
  <i name="program" type="string">vasp </i>
  <i name="version" type="string">6.4.3  </i>
  <i name="subversion" type="string">19Mar24 (build Apr 09 2025 20:43:19) complex                          parallel </i>
  <i name="platform" type="string">LinuxIFC </i>
  <i name="date" type="string">2025 04 13 </i>
  <i name="time" type="string">08:23:16 </i>
 </generator>
 <incar>
  <i type="string" name="PREC">Accurate</i>
  <i type="int" name="IALGO">    38</i>
  <i type="logical" name="ADDGRID"> T  </i>
  <i type="int" name="NELMIN">     5</i>
  <i type="int" name="IBRION">     2</i>
  <i name="EDIFF">      0.00000001</i>
  <i name="EDIFFG">     -0.00001000</i>
  <i type="int" name="NSW">   100</i>
  <i type="int" name="ISIF">     2</i>
  <i name="ENCUT">    520.00000000</i>
  <i type="logical" name="LREAL"> F  </i>
  <i type="int" name="ISMEAR">     0</i>
  <i name="SIGMA">      0.05000000</i>
  <i type="logical" name="LWAVE"> F  </i>
  <i type="logical" name="LCHARG"> F  </i>
 </incar>
 <primitive_cell>
  <structure name="primitive_cell" >
   <crystal>
    <varray name="basis" >
     <v>       7.72255666       0.00000000       0.00000000 </v>
     <v>       0.00000000       7.72255666       0.00000000 </v>
     <v>       0.00000000       0.00000000      12.18711128 </v>
    </varray>
    <i name="volume">    726.81349724 </i>
    <varray name="rec_basis" >
     <v>       0.12949079       0.00000000       0.00000000 </v>
     <v>       0.00000000       0.12949079       0.00000000 </v>
     <v>       0.00000000       0.00000000       0.08205390 </v>
    </varray>
   </crystal>
   <varray name="positions" >
    <v>       0.24880489       0.24880489       0.85639666 </v>
    <v>       0.75119511       0.24880489       0.85639666 </v>
    <v>       0.24880489       0.75119511       0.85639666 </v>
    <v>       0.75119511       0.75119511       0.85639666 </v>
    <v>       0.00000000       0.00000000       0.64453736 </v>
    <v>       0.50000000       0.00000000       0.64538244 </v>
    <v>       0.00000000       0.50000000       0.64538244 </v>
    <v>       0.50000000       0.50000000       0.64631664 </v>
    <v>       0.00000000       0.00000000       0.35546264 </v>
    <v>       0.50000000       0.00000000       0.35461756 </v>
    <v>       0.00000000       0.50000000       0.35461756 </v>
    <v>       0.50000000       0.50000000       0.35368336 </v>
    <v>       0.24880489       0.24880489       0.14360334 </v>
    <v>       0.75119511       0.24880489       0.14360334 </v>
    <v>       0.24880489       0.75119511       0.14360334 </v>
    <v>       0.75119511       0.75119511       0.14360334 </v>
    <v>       0.50000000       0.00000000       0.00000000 </v>
    <v>       0.00000000       0.50000000       0.00000000 </v>
    <v>       0.50000000       0.50000000       0.00000000 </v>
    <v>       0.25033580       0.25033580       0.50000000 </v>
    <v>       0.74966420       0.25033580       0.50000000 </v>
    <v>       0.25033580       0.74966420       0.50000000 </v>
    <v>       0.74966420       0.74966420       0.50000000 </v>
    <v>       0.00000000       0.24945602       0.75035776 </v>
    <v>       0.50000000       0.24958985       0.75149007 </v>
    <v>       0.00000000       0.75054398       0.75035776 </v>
    <v>       0.50000000       0.75041015       0.75149007 </v>
    <v>       0.24945602       0.00000000       0.75035776 </v>
    <v>       0.75054398       0.00000000       0.75035776 </v>
    <v>       0.24958985       0.50000000       0.75149007 </v>
    <v>       0.75041015       0.50000000       0.75149007 </v>
    <v>       0.24945602       0.00000000       0.24964224 </v>
    <v>       0.75054398       0.00000000       0.24964224 </v>
    <v>       0.24958985       0.50000000       0.24850993 </v>
    <v>       0.75041015       0.50000000       0.24850993 </v>
    <v>       0.00000000       0.24945602       0.24964224 </v>
    <v>       0.50000000       0.24958985       0.24850993 </v>
    <v>       0.00000000       0.75054398       0.24964224 </v>
    <v>       0.50000000       0.75041015       0.24850993 </v>
    <v>       0.00000000       0.00000000       0.00000000 </v>
   </varray>
  </structure>
  <varray name="primitive_index" >
   <v type="int" >        1 </v>
   <v type="int" >        2 </v>
   <v type="int" >        3 </v>
   <v type="int" >        4 </v>
   <v type="int" >        5 </v>
   <v type="int" >        6 </v>
   <v type="int" >        7 </v>
   <v type="int" >        8 </v>
   <v type="int" >        9 </v>
   <v type="int" >       10 </v>
   <v type="int" >       11 </v>
   <v type="int" >       12 </v>
   <v type="int" >       13 </v>
   <v type="int" >       14 </v>
   <v type="int" >       15 </v>
   <v type="int" >       16 </v>
   <v type="int" >       17 </v>
   <v type="int" >       18 </v>
   <v type="int" >       19 </v>
   <v type="int" >       20 </v>
   <v type="int" >       21 </v>
   <v type="int" >       22 </v>
   <v type="int" >       23 </v>
   <v type="int" >       24 </v>
   <v type="int" >       25 </v>
   <v type="int" >       26 </v>
   <v type="int" >       27 </v>
   <v type="int" >       28 </v>
   <v type="int" >       29 </v>
   <v type="int" >       30 </v>
   <v type="int" >       31 </v>
   <v type="int" >       32 </v>
   <v type="int" >       33 </v>
   <v type="int" >       34 </v>
   <v type="int" >       35 </v>
   <v type="int" >       36 </v>
   <v type="int" >       37 </v>
   <v type="int" >       38 </v>
   <v type="int" >       39 </v>
   <v type="int" >       40 </v>
  </varray>
 </primitive_cell>
 <kpoints>
  <generation param="Gamma">
   <v type="int" name="divisions">       4        4        3 </v>
   <v name="usershift">      0.00000000       0.00000000       0.00000000 </v>
   <v name="genvec1">      0.25000000       0.00000000       0.00000000 </v>
   <v name="genvec2">      0.00000000       0.25000000       0.00000000 </v>
   <v name="genvec3">      0.00000000       0.00000000       0.33333333 </v>
   <v name="shift">      0.00000000       0.00000000       0.00000000 </v>
  </generation>
  <varray name="kpointlist" >
   <v>       0.00000000       0.00000000       0.00000000 </v>
   <v>       0.25000000       0.00000000       0.00000000 </v>
   <v>       0.50000000       0.00000000       0.00000000 </v>
   <v>       0.25000000       0.25000000       0.00000000 </v>
   <v>       0.50000000       0.25000000       0.00000000 </v>
   <v>       0.50000000       0.50000000       0.00000000 </v>
   <v>       0.00000000       0.00000000       0.33333333 </v>
   <v>       0.25000000       0.00000000       0.33333333 </v>
   <v>       0.50000000       0.00000000       0.33333333 </v>
   <v>       0.25000000       0.25000000       0.33333333 </v>
   <v>       0.50000000       0.25000000       0.33333333 </v>
   <v>       0.50000000       0.50000000       0.33333333 </v>
  </varray>
  <varray name="weights" >
   <v>       0.02083333 </v>
   <v>       0.08333333 </v>
   <v>       0.04166667 </v>
   <v>       0.08333333 </v>
   <v>       0.08333333 </v>
   <v>       0.02083333 </v>
   <v>       0.04166667 </v>
   <v>       0.16666667 </v>
   <v>       0.08333333 </v>
   <v>       0.16666667 </v>
   <v>       0.16666667 </v>
   <v>       0.04166667 </v>
  </varray>
 </kpoints>
 <parameters>
  <separator name="general" >
   <i type="string" name="SYSTEM">unknown system</i>
   <i type="logical" name="LCOMPAT"> F  </i>
  </separator>
  <separator name="electronic" >
   <i type="string" name="PREC">accura</i>
   <i name="ENMAX">    520.00000000</i>
   <i name="ENAUG">    605.39200000</i>
   <i name="EDIFF">      0.00000001</i>
   <i type="int" name="IALGO">    38</i>
   <i type="int" name="IWAVPR">    11</i>
   <i type="int" name="NBANDS">   232</i>
   <i type="int" name="NBANDSLOW">    -1</i>
   <i type="int" name="NBANDSHIGH">    -1</i>
   <i name="NELECT">    384.00000000</i>
   <i type="int" name="TURBO">     0</i>
   <i type="int" name="IRESTART">     0</i>
   <i type="int" name="NREBOOT">     0</i>
   <i type="int" name="NMIN">     0</i>
   <i name="EREF">      0.00000000</i>
   <separator name="electronic smearing" >
    <i type="int" name="ISMEAR">     0</i>
    <i name="SIGMA">      0.05000000</i>
    <i name="KSPACING">      0.50000000</i>
    <i type="logical" name="KGAMMA"> T  </i>
    <i type="logical" name="KBLOWUP"> T  </i>
   </separator>
   <separator name="electronic projectors" >
    <i type="logical" name="LREAL"> F  </i>
    <v name="ROPT">      0.00000000      0.00000000      0.00000000      0.00000000</v>
    <i type="int" name="LMAXPAW">  -100</i>
    <i type="int" name="LMAXMIX">     2</i>
    <i type="logical" name="NLSPLINE"> F  </i>
   </separator>
   <separator name="electronic startup" >
    <i type="int" name="ISTART">     0</i>
    <i type="int" name="ICHARG">     2</i>
    <i type="int" name="INIWAV">     1</i>
   </separator>
   <separator name="electronic spin" >
    <i type="int" name="ISPIN">     1</i>
    <i type="logical" name="LNONCOLLINEAR"> F  </i>
    <v name="MAGMOM">      1.00000000      1.00000000      1.00000000      1.00000000      1.00000000      1.00000000      1.00000000      1.00000000      1.00000000      1.00000000      1.00000000      1.00000000      1.00000000      1.00000000      1.00000000      1.00000000      1.00000000      1.00000000      1.00000000      1.00000000
      1.00000000      1.00000000      1.00000000      1.00000000      1.00000000      1.00000000      1.00000000      1.00000000      1.00000000      1.00000000      1.00000000      1.00000000      1.00000000      1.00000000      1.00000000      1.00000000      1.00000000      1.00000000      1.00000000      1.00000000
</v>
    <i name="NUPDOWN">     -1.00000000</i>
    <i type="logical" name="LSORBIT"> F  </i>
    <v name="SAXIS">      0.00000000      0.00000000      1.00000000</v>
    <i type="logical" name="LSPIRAL"> F  </i>
    <v name="QSPIRAL">      0.00000000      0.00000000      0.00000000</v>
    <i type="logical" name="LZEROZ"> F  </i>
   </separator>
   <separator name="electronic exchange-correlation" >
    <i type="logical" name="LASPH"> F  </i>
   </separator>
   <separator name="electronic convergence" >
    <i type="int" name="NELM">    60</i>
    <i type="int" name="NELMDL">    -5</i>
    <i type="int" name="NELMIN">     5</i>
    <i name="ENINI">    520.00000000</i>
    <separator name="electronic convergence detail" >
     <i type="logical" name="LDIAG"> T  </i>
     <i type="logical" name="LSUBROT"> F  </i>
     <i name="WEIMIN">      0.00100000</i>
     <i name="EBREAK">      0.00000000</i>
     <i name="DEPER">      0.30000000</i>
     <i type="int" name="NRMM">     4</i>
     <i name="TIME">      0.40000000</i>
    </separator>
   </separator>
   <separator name="electronic mixer" >
    <i name="AMIX">      0.40000000</i>
    <i name="BMIX">      1.00000000</i>
    <i name="AMIN">      0.10000000</i>
    <i name="AMIX_MAG">      1.60000000</i>
    <i name="BMIX_MAG">      1.00000000</i>
    <separator name="electronic mixer details" >
     <i type="int" name="IMIX">     4</i>
     <i type="logical" name="MIXFIRST"> F  </i>
     <i type="int" name="MAXMIX">   -45</i>
     <i name="WC">    100.00000000</i>
     <i type="int" name="INIMIX">     1</i>
     <i type="int" name="MIXPRE">     1</i>
     <i type="int" name="MREMOVE">     5</i>
    </separator>
   </separator>
   <separator name="electronic dipolcorrection" >
    <i type="logical" name="LDIPOL"> F  </i>
    <i type="logical" name="LMONO"> F  </i>
    <i type="int" name="IDIPOL">     0</i>
    <i name="EPSILON">      1.00000000</i>
    <v name="DIPOL">   -100.00000000   -100.00000000   -100.00000000</v>
    <i name="EFIELD">      0.00000000</i>
    <i type="logical" name="LVACPOTAV"> F  </i>
   </separator>
  </separator>
  <separator name="grids" >
   <i type="int" name="NGX">    60</i>
   <i type="int" name="NGY">    60</i>
   <i type="int" name="NGZ">    96</i>
   <i type="int" name="NGXF">   120</i>
   <i type="int" name="NGYF">   120</i>
   <i type="int" name="NGZF">   192</i>
   <i type="logical" name="ADDGRID"> T  </i>
  </separator>
  <separator name="ionic" >
   <i type="int" name="NSW">   100</i>
   <i type="int" name="IBRION">     2</i>
   <i type="int" name="MDALGO">     0</i>
   <i type="int" name="ISIF">     2</i>
   <i name="PSTRESS">      0.00000000</i>
   <i name="EDIFFG">     -0.00001000</i>
   <i type="int" name="NFREE">     1</i>
   <i name="POTIM">      0.50000000</i>
   <i name="SMASS">     -3.00000000</i>
   <i name="SCALEE">      1.00000000</i>
  </separator>
  <separator name="ionic md" >
   <i name="TEBEG">      0.00010000</i>
   <i name="TEEND">      0.00010000</i>
   <i type="int" name="NBLOCK">     1</i>
   <i type="int" name="KBLOCK">   100</i>
   <i type="int" name="NPACO">   256</i>
   <i name="APACO">     10.00000000</i>
  </separator>
  <separator name="symmetry" >
   <i type="int" name="ISYM">     2</i>
   <i name="SYMPREC">      0.00001000</i>
  </separator>
  <separator name="dos" >
   <i type="int" name="LORBIT">     0</i>
   <v name="RWIGS">     -1.00000000     -1.00000000     -1.00000000     -1.00000000</v>
   <i type="int" name="NEDOS">   301</i>
   <i name="EMIN">     10.00000000</i>
   <i name="EMAX">    -10.00000000</i>
   <i name="EFERMI">      0.00000000</i>
  </separator>
  <separator name="writing" >
   <i type="int" name="NWRITE">     2</i>
   <i type="logical" name="LWAVE"> F  </i>
   <i type="logical" name="LDOWNSAMPLE"> F  </i>
   <i type="logical" name="LCHARG"> F  </i>
   <i type="logical" name="LPARD"> F  </i>
   <i type="logical" name="LVTOT"> F  </i>
   <i type="logical" name="LVHAR"> F  </i>
   <i type="logical" name="LELF"> F  </i>
   <i type="logical" name="LOPTICS"> F  </i>
   <v name="STM">      0.00000000      0.00000000      0.00000000      0.00000000      0.00000000      0.00000000      0.00000000</v>
  </separator>
  <separator name="performance" >
   <i type="int" name="NPAR">     4</i>
   <i type="int" name="NSIM">     4</i>
   <i type="int" name="NBLK">    -1</i>
   <i type="logical" name="LPLANE"> T  </i>
   <i type="logical" name="LSCALAPACK"> T  </i>
   <i type="logical" name="LSCAAWARE"> F  </i>
   <i type="logical" name="LSCALU"> F  </i>
   <i type="logical" name="LASYNC"> F  </i>
   <i type="logical" name="LORBITALREAL"> F  </i>
  </separator>
  <separator name="miscellaneous" >
   <i type="int" name="IDIOT">     3</i>
   <i type="int" name="PHON_NSTRUCT">    -1</i>
   <i type="logical" name="LMUSIC"> F  </i>
   <v name="POMASS">    208.98000000     78.96000000     16.00000000     32.06600000</v>
   <v name="DARWINR">      0.00000000      0.00000000      0.00000000      0.00000000</v>
   <v name="DARWINV">      1.00000000      1.00000000      1.00000000      1.00000000</v>
   <i type="logical" name="LCORR"> T  </i>
  </separator>
  <i type="logical" name="GGA_COMPAT"> T  </i>
  <i type="logical" name="LBERRY"> F  </i>
  <i type="int" name="ICORELEVEL">     0</i>
  <i type="logical" name="LDAU"> F  </i>
  <i type="int" name="I_CONSTRAINED_M">     0</i>
  <separator name="electronic exchange-correlation" >
   <i type="string" name="GGA    ">PE</i>
   <i type="string" name="XC_C">1</i>
   <i type="int" name="VOSKOWN">     0</i>
   <i type="logical" name="LHFCALC"> F  </i>
   <i type="string" name="PRECFOCK"></i>
   <i type="logical" name="LSYMGRAD"> F  </i>
   <i type="logical" name="LHFONE"> F  </i>
   <i type="logical" name="LRHFCALC"> F  </i>
   <i type="logical" name="LTHOMAS"> F  </i>
   <i type="logical" name="LMODELHF"> F  </i>
   <i type="logical" name="LFOCKACE"> F  </i>
   <i name="ENCUT4O">     -1.00000000</i>
   <i type="int" name="EXXOEP">     0</i>
   <i type="int" name="FOURORBIT">     0</i>
   <i name="AEXX">      0.00000000</i>
   <i name="HFALPHA">      0.00000000</i>
   <i name="MCALPHA">      0.00000000</i>
   <i name="ALDAX">      1.00000000</i>
   <i name="AGGAX">      1.00000000</i>
   <i name="AMGGAX">      1.00000000</i>
   <i name="ALDAC">      1.00000000</i>
   <i name="AGGAC">      1.00000000</i>
   <i name="AMGGAC">      1.00000000</i>
   <i type="int" name="NKREDX">     1</i>
   <i type="int" name="NKREDY">     1</i>
   <i type="int" name="NKREDZ">     1</i>
   <i type="logical" name="SHIFTRED"> F  </i>
   <i type="logical" name="ODDONLY"> F  </i>
   <i type="logical" name="EVENONLY"> F  </i>
   <i type="int" name="LMAXFOCK">     0</i>
   <i type="int" name="NMAXFOCKAE">     0</i>
   <i type="logical" name="LFOCKAEDFT"> F  </i>
   <i name="HFSCREEN">      0.00000000</i>
   <i name="HFSCREENC">      0.00000000</i>
   <i type="int" name="NBANDSGWLOW">     0</i>
  </separator>
  <separator name="vdW DFT" >
   <i type="logical" name="LUSE_VDW"> F  </i>
   <i type="int" name="IVDW_NL">    -1</i>
   <i type="logical" name="LSPIN_VDW"> F  </i>
   <i name="ZAB_VDW">     -0.84910000</i>
   <i name="GAMMA_VDW">      1.39626340</i>
   <i name="ALPHA_VDW">      0.00000000</i>
   <i name="PARAM1">      0.12340000</i>
   <i name="PARAM2">      1.00000000</i>
   <i name="BPARAM">      6.30000000</i>
   <i name="CPARAM">      0.00930000</i>
  </separator>
  <separator name="model GW" >
   <i type="int" name="MODEL_GW">     0</i>
   <i name="MODEL_EPS0">     10.90220246</i>
   <i name="MODEL_ALPHA">      1.00000000</i>
  </separator>
  <separator name="linear response parameters" >
   <i type="logical" name="LEPSILON"> F  </i>
   <i type="logical" name="LRPA"> F  </i>
   <i type="logical" name="LNABLA"> F  </i>
   <i type="logical" name="LVEL"> F  </i>
   <i name="CSHIFT">      0.10000000</i>
   <i name="OMEGAMAX">     -1.00000000</i>
   <i name="DEG_THRESHOLD">      0.00200000</i>
   <i name="RTIME">     -0.10000000</i>
   <i name="WPLASMAI">      0.00000000</i>
   <v name="DFIELD">      0.00000000      0.00000000      0.00000000</v>
   <v name="WPLASMA">      0.00000000      0.00000000      0.00000000      0.00000000      0.00000000      0.00000000      0.00000000      0.00000000      0.00000000</v>
  </separator>
  <separator name="orbital magnetization" >
   <i type="logical" name="NUCIND"> F  </i>
   <v name="MAGPOS">      0.00000000      0.00000000      0.00000000</v>
   <i type="logical" name="LNICSALL"> T  </i>
   <i type="logical" name="ORBITALMAG"> F  </i>
   <i type="logical" name="LMAGBLOCH"> F  </i>
   <i type="logical" name="LCHIMAG"> F  </i>
   <i type="logical" name="LGAUGE"> T  </i>
   <i type="int" name="MAGATOM">     0</i>
   <v name="MAGDIPOL">      0.00000000      0.00000000      0.00000000</v>
   <v name="AVECCONST">      0.00000000      0.00000000      0.00000000</v>
  </separator>
  <separator name="response functions" >
   <i type="logical" name="LALL_IN_ONE"> F  </i>
   <i type="int" name="IALL_IN_ONE">    -1</i>
   <i type="int" name="NBANDS_WAVE">    -1</i>
   <i type="logical" name="LFINITE_TEMPERATURE"> F  </i>
   <i type="logical" name="LADDER"> F  </i>
   <i type="logical" name="LRPAFORCE"> F  </i>
   <i type="logical" name="LFXC"> F  </i>
   <i type="logical" name="LHARTREE"> T  </i>
   <i type="int" name="IBSE">     0</i>
   <v type="int" name="KPOINT">    -1     0     0     0</v>
   <i type="logical" name="LTCTC"> F  </i>
   <i type="logical" name="LTCTE"> F  </i>
   <i type="logical" name="LTETE"> F  </i>
   <i type="logical" name="LTRIPLET"> F  </i>
   <i type="logical" name="LFXCEPS"> F  </i>
   <i type="logical" name="LFXHEG"> F  </i>
   <i type="int" name="NATURALO">     2</i>
   <i type="logical" name="LHOLEGF"> F  </i>
   <i type="logical" name="L2ORDER"> F  </i>
   <i type="logical" name="LDMP1"> F  </i>
   <i type="logical" name="LMP2LT"> F  </i>
   <i type="logical" name="LSMP2LT"> F  </i>
   <i type="logical" name="LGWLF"> F  </i>
   <i name="ENCUTGW">     -1.60000002</i>
   <i name="ENCUTGWSOFT">     -1.60000002</i>
   <i name="ENCUTLF">     -1.00000000</i>
   <i type="logical" name="ESF_SPLINES"> F  </i>
   <i name="ESF_CONV">      0.01000000</i>
   <i type="int" name="ESF_NINTER">    15</i>
   <i type="int" name="LMAXMP2">    -1</i>
   <i name="SCISSOR">      0.00000000</i>
   <i type="int" name="NOMEGA">     0</i>
   <i type="int" name="NOMEGAR">     0</i>
   <i type="int" name="NBANDSGW">    -1</i>
   <i type="int" name="NBANDSO">    -1</i>
   <i type="int" name="NBANDSV">    -1</i>
   <i type="int" name="NELMGW">     1</i>
   <i type="int" name="NELMHF">     1</i>
   <i type="int" name="DIM">     3</i>
   <i type="int" name="IESPILON">     4</i>
   <i type="int" name="ANTIRES">     0</i>
   <i name="OMEGAMAX">    -30.00000000</i>
   <i name="OMEGAMIN">    -30.00000000</i>
   <i name="OMEGATL">   -200.00000000</i>
   <i type="int" name="OMEGAGRID">     0</i>
   <i name="CSHIFT">     -0.10000000</i>
   <i type="logical" name="LSELFENERGY"> F  </i>
   <i type="logical" name="LSPECTRAL"> F  </i>
   <i type="logical" name="LSPECTRALGW"> F  </i>
   <i type="logical" name="LSINGLES"> F  </i>
   <i type="logical" name="LFERMIGW"> F  </i>
   <i type="logical" name="ODDONLYGW"> F  </i>
   <i type="logical" name="EVENONLYGW"> F  </i>
   <i type="int" name="NKREDLFX">     1</i>
   <i type="int" name="NKREDLFY">     1</i>
   <i type="int" name="NKREDLFZ">     1</i>
   <i type="int" name="MAXMEM">  2800</i>
   <i type="int" name="TELESCOPE">     0</i>
   <i type="int" name="NTAUPAR">    -1</i>
   <i type="int" name="NOMEGAPAR">    -1</i>
   <i name="DAMP_NEWTON">      0.80000001</i>
   <i name="LAMBDA">      1.00000000</i>
  </separator>
  <separator name="External order field" >
   <i name="OFIELD_KAPPA">      0.00000000</i>
   <v name="OFIELD_K">      0.00000000      0.00000000      0.00000000</v>
   <i name="OFIELD_Q6_NEAR">      0.00000000</i>
   <i name="OFIELD_Q6_FAR">      0.00000000</i>
   <i name="OFIELD_A">      0.00000000</i>
  </separator>
  <separator name="optional k-points parameters" >
   <i type="int" name="KPOINTS_OPT_MODE">     1</i>
   <i type="logical" name="LKPOINTS_OPT"> F  </i>
  </separator>
 </parameters>
 <atominfo>
  <atoms>      40 </atoms>
  <types>       4 </types>
  <array name="atoms" >
   <dimension dim="1">ion</dimension>
   <field type="string">element</field>
   <field type="int">atomtype</field>
   <set>
    <rc><c>Bi</c><c>   1</c></rc>
    <rc><c>Bi</c><c>   1</c></rc>
    <rc><c>Bi</c><c>   1</c></rc>
    <rc><c>Bi</c><c>   1</c></rc>
    <rc><c>Bi</c><c>   1</c></rc>
    <rc><c>Bi</c><c>   1</c></rc>
    <rc><c>Bi</c><c>   1</c></rc>
    <rc><c>Bi</c><c>   1</c></rc>
    <rc><c>Bi</c><c>   1</c></rc>
    <rc><c>Bi</c><c>   1</c></rc>
    <rc><c>Bi</c><c>   1</c></rc>
    <rc><c>Bi</c><c>   1</c></rc>
    <rc><c>Bi</c><c>   1</c></rc>
    <rc><c>Bi</c><c>   1</c></rc>
    <rc><c>Bi</c><c>   1</c></rc>
    <rc><c>Bi</c><c>   1</c></rc>
    <rc><c>Se</c><c>   2</c></rc>
    <rc><c>Se</c><c>   2</c></rc>
    <rc><c>Se</c><c>   2</c></rc>
    <rc><c>Se</c><c>   2</c></rc>
    <rc><c>Se</c><c>   2</c></rc>
    <rc><c>Se</c><c>   2</c></rc>
    <rc><c>Se</c><c>   2</c></rc>
    <rc><c>O </c><c>   3</c></rc>
    <rc><c>O </c><c>   3</c></rc>
    <rc><c>O </c><c>   3</c></rc>
    <rc><c>O </c><c>   3</c></rc>
    <rc><c>O </c><c>   3</c></rc>
    <rc><c>O </c><c>   3</c></rc>
    <rc><c>O </c><c>   3</c></rc>
    <rc><c>O </c><c>   3</c></rc>
    <rc><c>O </c><c>   3</c></rc>
    <rc><c>O </c><c>   3</c></rc>
    <rc><c>O </c><c>   3</c></rc>
    <rc><c>O </c><c>   3</c></rc>
    <rc><c>O </c><c>   3</c></rc>
    <rc><c>O </c><c>   3</c></rc>
    <rc><c>O </c><c>   3</c></rc>
    <rc><c>O </c><c>   3</c></rc>
    <rc><c>S </c><c>   4</c></rc>
   </set>
  </array>
  <array name="atomtypes" >
   <dimension dim="1">type</dimension>
   <field type="int">atomspertype</field>
   <field type="string">element</field>
   <field>mass</field>
   <field>valence</field>
   <field type="string">pseudopotential</field>
   <set>
    <rc><c>  16</c><c>Bi</c><c>    208.98000000</c><c>     15.00000000</c><c>  PAW_PBE Bi_d 06Sep2000                </c></rc>
    <rc><c>   7</c><c>Se</c><c>     78.96000000</c><c>      6.00000000</c><c>  PAW_PBE Se 06Sep2000                  </c></rc>
    <rc><c>  16</c><c>O </c><c>     16.00000000</c><c>      6.00000000</c><c>  PAW_PBE O 08Apr2002                   </c></rc>
    <rc><c>   1</c><c>S </c><c>     32.06600000</c><c>      6.00000000</c><c>  PAW_PBE S 06Sep2000                   </c></rc>
   </set>
  </array>
 </atominfo>
 <structure name="initialpos" >
  <crystal>
   <varray name="basis" >
    <v>       7.72255666       0.00000000       0.00000000 </v>
    <v>       0.00000000       7.72255666       0.00000000 </v>
    <v>       0.00000000       0.00000000      12.18711128 </v>
   </varray>
   <i name="volume">    726.81349724 </i>
   <varray name="rec_basis" >
    <v>       0.12949079       0.00000000       0.00000000 </v>
    <v>       0.00000000       0.12949079       0.00000000 </v>
    <v>       0.00000000       0.00000000       0.08205390 </v>
   </varray>
  </crystal>
  <varray name="positions" >
   <v>       0.24880489       0.24880489       0.85639666 </v>
   <v>       0.75119511       0.24880489       0.85639666 </v>
   <v>       0.24880489       0.75119511       0.85639666 </v>
   <v>       0.75119511       0.75119511       0.85639666 </v>
   <v>       0.00000000       0.00000000       0.64453736 </v>
   <v>       0.50000000       0.00000000       0.64538244 </v>
   <v>       0.00000000       0.50000000       0.64538244 </v>
   <v>       0.50000000       0.50000000       0.64631664 </v>
   <v>       0.00000000       0.00000000       0.35546264 </v>
   <v>       0.50000000       0.00000000       0.35461756 </v>
   <v>       0.00000000       0.50000000       0.35461756 </v>
   <v>       0.50000000       0.50000000       0.35368336 </v>
   <v>       0.24880489       0.24880489       0.14360334 </v>
   <v>       0.75119511       0.24880489       0.14360334 </v>
   <v>       0.24880489       0.75119511       0.14360334 </v>
   <v>       0.75119511       0.75119511       0.14360334 </v>
   <v>       0.50000000       0.00000000       0.00000000 </v>
   <v>       0.00000000       0.50000000       0.00000000 </v>
   <v>       0.50000000       0.50000000       0.00000000 </v>
   <v>       0.25033580       0.25033580       0.50000000 </v>
   <v>       0.74966420       0.25033580       0.50000000 </v>
   <v>       0.25033580       0.74966420       0.50000000 </v>
   <v>       0.74966420       0.74966420       0.50000000 </v>
   <v>       0.00000000       0.24945602       0.75035776 </v>
   <v>       0.50000000       0.24958985       0.75149007 </v>
   <v>       0.00000000       0.75054398       0.75035776 </v>
   <v>       0.50000000       0.75041015       0.75149007 </v>
   <v>       0.24945602       0.00000000       0.75035776 </v>
   <v>       0.75054398       0.00000000       0.75035776 </v>
   <v>       0.24958985       0.50000000       0.75149007 </v>
   <v>       0.75041015       0.50000000       0.75149007 </v>
   <v>       0.24945602       0.00000000       0.24964224 </v>
   <v>       0.75054398       0.00000000       0.24964224 </v>
   <v>       0.24958985       0.50000000       0.24850993 </v>
   <v>       0.75041015       0.50000000       0.24850993 </v>
   <v>       0.00000000       0.24945602       0.24964224 </v>
   <v>       0.50000000       0.24958985       0.24850993 </v>
   <v>       0.00000000       0.75054398       0.24964224 </v>
   <v>       0.50000000       0.75041015       0.24850993 </v>
   <v>       0.00000000       0.00000000       0.00000000 </v>
  </varray>
 </structure>
 <calculation>
  <scstep>
   <time name="dav">   31.40   31.43</time>
   <time name="total">   32.29   32.33</time>
   <energy>
    <i name="alphaZ">   1389.84234022 </i>
    <i name="ewald"> -30084.09868772 </i>
    <i name="hartreedc"> -11003.12564593 </i>
    <i name="XCdc">   1238.56635792 </i>
    <i name="pawpsdc">  34040.00696010 </i>
    <i name="pawaedc"> -33495.80632930 </i>
    <i name="eentropy">     -0.00376631 </i>
    <i name="bandstr">   3338.68457359 </i>
    <i name="atom">  40341.65184589 </i>
    <i name="e_fr_energy">   5765.71764848 </i>
    <i name="e_wo_entrp">   5765.72141479 </i>
    <i name="e_0_energy">   5765.71953164 </i>
   </energy>
  </scstep>
  <scstep>
   <time name="dav">   31.41   31.44</time>
   <time name="total">   31.41   31.44</time>
   <energy>
    <i name="e_fr_energy">   1009.31570508 </i>
    <i name="e_wo_entrp">   1009.32822015 </i>
    <i name="e_0_energy">   1009.32196262 </i>
   </energy>
  </scstep>
  <scstep>
   <time name="dav">   33.99   34.02</time>
   <time name="total">   33.99   34.02</time>
   <energy>
    <i name="e_fr_energy">   -105.68214382 </i>
    <i name="e_wo_entrp">   -105.68172936 </i>
    <i name="e_0_energy">   -105.68193659 </i>
   </energy>
  </scstep>
  <scstep>
   <time name="dav">   36.06   36.07</time>
   <time name="total">   36.06   36.07</time>
   <energy>
    <i name="e_fr_energy">   -236.68265528 </i>
    <i name="e_wo_entrp">   -236.68265528 </i>
    <i name="e_0_energy">   -236.68265528 </i>
   </energy>
  </scstep>
  <scstep>
   <time name="dav">   35.60   35.60</time>
   <time name="total">   36.90   36.90</time>
   <energy>
    <i name="e_fr_energy">   -242.30281806 </i>
    <i name="e_wo_entrp">   -242.30281806 </i>
    <i name="e_0_energy">   -242.30281806 </i>
   </energy>
  </scstep>
  <scstep>
   <time name="dav">   40.19   40.21</time>
   <time name="total">   42.39   42.41</time>
   <energy>
    <i name="e_fr_energy">   -208.26161916 </i>
    <i name="e_wo_entrp">   -208.26161916 </i>
    <i name="e_0_energy">   -208.26161916 </i>
   </energy>
  </scstep>
  <scstep>
   <time name="dav">   33.53   33.57</time>
   <time name="total">   35.72   35.76</time>
   <energy>
    <i name="e_fr_energy">   -208.39252316 </i>
    <i name="e_wo_entrp">   -208.39252316 </i>
    <i name="e_0_energy">   -208.39252316 </i>
   </energy>
  </scstep>
  <scstep>
   <time name="dav">   41.31   41.34</time>
   <time name="total">   43.51   43.54</time>
   <energy>
    <i name="e_fr_energy">   -208.52324722 </i>
    <i name="e_wo_entrp">   -208.52324722 </i>
    <i name="e_0_energy">   -208.52324722 </i>
   </energy>
  </scstep>
  <scstep>
   <time name="dav">   38.62   38.65</time>
   <time name="total">   40.81   40.84</time>
   <energy>
    <i name="e_fr_energy">   -208.43358892 </i>
    <i name="e_wo_entrp">   -208.43358892 </i>
    <i name="e_0_energy">   -208.43358892 </i>
   </energy>
  </scstep>
  <scstep>
   <time name="dav">   37.18   37.20</time>
   <time name="total">   39.38   39.39</time>
   <energy>
    <i name="e_fr_energy">   -208.42578818 </i>
    <i name="e_wo_entrp">   -208.42578818 </i>
    <i name="e_0_energy">   -208.42578818 </i>
   </energy>
  </scstep>
  <scstep>
   <time name="dav">   37.61   37.63</time>
   <time name="total">   39.81   39.84</time>
   <energy>
    <i name="e_fr_energy">   -208.42785745 </i>
    <i name="e_wo_entrp">   -208.42785745 </i>
    <i name="e_0_energy">   -208.42785745 </i>
   </energy>
  </scstep>
  <scstep>
   <time name="dav">   40.14   40.18</time>
   <time name="total">   42.34   42.38</time>
   <energy>
    <i name="e_fr_energy">   -208.42864380 </i>
    <i name="e_wo_entrp">   -208.42864380 </i>
    <i name="e_0_energy">   -208.42864380 </i>
   </energy>
  </scstep>
  <scstep>
   <time name="dav">   35.23   35.23</time>
   <time name="total">   37.43   37.43</time>
   <energy>
    <i name="e_fr_energy">   -208.42850663 </i>
    <i name="e_wo_entrp">   -208.42850663 </i>
    <i name="e_0_energy">   -208.42850663 </i>
   </energy>
  </scstep>
  <scstep>
   <time name="dav">   35.43   35.45</time>
   <time name="total">   37.65   37.67</time>
   <energy>
    <i name="e_fr_energy">   -208.42849090 </i>
    <i name="e_wo_entrp">   -208.42849090 </i>
    <i name="e_0_energy">   -208.42849090 </i>
   </energy>
  </scstep>
  <scstep>
   <time name="dav">   41.73   41.73</time>
   <time name="total">   43.92   43.93</time>
   <energy>
    <i name="e_fr_energy">   -208.42847578 </i>
    <i name="e_wo_entrp">   -208.42847578 </i>
    <i name="e_0_energy">   -208.42847578 </i>
   </energy>
  </scstep>
  <scstep>
   <time name="dav">   37.12   37.13</time>
   <time name="total">   39.32   39.34</time>
   <energy>
    <i name="e_fr_energy">   -208.42847233 </i>
    <i name="e_wo_entrp">   -208.42847233 </i>
    <i name="e_0_energy">   -208.42847233 </i>
   </energy>
  </scstep>
  <scstep>
   <time name="dav">   40.29   40.31</time>
   <time name="total">   42.50   42.52</time>
   <energy>
    <i name="e_fr_energy">   -208.42847059 </i>
    <i name="e_wo_entrp">   -208.42847059 </i>
    <i name="e_0_energy">   -208.42847059 </i>
   </energy>
  </scstep>
  <scstep>
   <time name="dav">   32.23   32.24</time>
   <time name="total">   34.43   34.45</time>
   <energy>
    <i name="e_fr_energy">   -208.42847065 </i>
    <i name="e_wo_entrp">   -208.42847065 </i>
    <i name="e_0_energy">   -208.42847065 </i>
   </energy>
  </scstep>
  <scstep>
   <time name="dav">   36.73   36.75</time>
   <time name="total">   38.93   38.95</time>
   <energy>
    <i name="e_fr_energy">   -208.42847094 </i>
    <i name="e_wo_entrp">   -208.42847094 </i>
    <i name="e_0_energy">   -208.42847094 </i>
   </energy>
  </scstep>
  <scstep>
   <time name="dav">   32.85   32.85</time>
   <time name="total">   35.05   35.05</time>
   <energy>
    <i name="e_fr_energy">   -208.42847120 </i>
    <i name="e_wo_entrp">   -208.42847120 </i>
    <i name="e_0_energy">   -208.42847120 </i>
   </energy>
  </scstep>
  <scstep>
   <time name="dav">   29.74   29.76</time>
   <time name="total">   31.97   31.99</time>
   <energy>
    <i name="e_fr_energy">   -208.42847141 </i>
    <i name="e_wo_entrp">   -208.42847141 </i>
    <i name="e_0_energy">   -208.42847141 </i>
   </energy>
  </scstep>
  <scstep>
   <time name="dav">   22.65   22.66</time>
   <time name="total">   24.85   24.87</time>
   <energy>
    <i name="e_fr_energy">   -208.42847134 </i>
    <i name="e_wo_entrp">   -208.42847134 </i>
    <i name="e_0_energy">   -208.42847134 </i>
   </energy>
  </scstep>
  <scstep>
   <time name="dav">   22.68   22.69</time>
   <time name="total">   24.89   24.90</time>
   <energy>
    <i name="e_fr_energy">   -208.42847130 </i>
    <i name="e_wo_entrp">   -208.42847130 </i>
    <i name="e_0_energy">   -208.42847130 </i>
   </energy>
  </scstep>
  <scstep>
   <time name="dav">   22.56   22.57</time>
   <time name="total">   23.45   23.46</time>
   <energy>
    <i name="alphaZ">   1389.84234022 </i>
    <i name="ewald"> -30084.09868772 </i>
    <i name="hartreedc"> -11174.40257411 </i>
    <i name="XCdc">   1255.96339049 </i>
    <i name="pawpsdc">  36609.20390279 </i>
    <i name="pawaedc"> -36009.02018149 </i>
    <i name="eentropy">     -0.00000000 </i>
    <i name="bandstr">  -2537.56850739 </i>
    <i name="atom">  40341.65184589 </i>
    <i name="e_fr_energy">   -208.42847130 </i>
    <i name="e_wo_entrp">   -208.42847130 </i>
    <i name="e_0_energy">   -208.42847130 </i>
   </energy>
  </scstep>
  <structure>
   <crystal>
    <varray name="basis" >
     <v>       7.72255666       0.00000000       0.00000000 </v>
     <v>       0.00000000       7.72255666       0.00000000 </v>
     <v>       0.00000000       0.00000000      12.18711128 </v>
    </varray>
    <i name="volume">    726.81349724 </i>
    <varray name="rec_basis" >
     <v>       0.12949079       0.00000000       0.00000000 </v>
     <v>       0.00000000       0.12949079       0.00000000 </v>
     <v>       0.00000000       0.00000000       0.08205390 </v>
    </varray>
   </crystal>
   <varray name="positions" >
    <v>       0.24880489       0.24880489       0.85639666 </v>
    <v>       0.75119511       0.24880489       0.85639666 </v>
    <v>       0.24880489       0.75119511       0.85639666 </v>
    <v>       0.75119511       0.75119511       0.85639666 </v>
    <v>       0.00000000       0.00000000       0.64453736 </v>
    <v>       0.50000000       0.00000000       0.64538244 </v>
    <v>       0.00000000       0.50000000       0.64538244 </v>
    <v>       0.50000000       0.50000000       0.64631664 </v>
    <v>       0.00000000       0.00000000       0.35546264 </v>
    <v>       0.50000000       0.00000000       0.35461756 </v>
    <v>       0.00000000       0.50000000       0.35461756 </v>
    <v>       0.50000000       0.50000000       0.35368336 </v>
    <v>       0.24880489       0.24880489       0.14360334 </v>
    <v>       0.75119511       0.24880489       0.14360334 </v>
    <v>       0.24880489       0.75119511       0.14360334 </v>
    <v>       0.75119511       0.75119511       0.14360334 </v>
    <v>       0.50000000       0.00000000       0.00000000 </v>
    <v>       0.00000000       0.50000000       0.00000000 </v>
    <v>       0.50000000       0.50000000       0.00000000 </v>
    <v>       0.25033580       0.25033580       0.50000000 </v>
    <v>       0.74966420       0.25033580       0.50000000 </v>
    <v>       0.25033580       0.74966420       0.50000000 </v>
    <v>       0.74966420       0.74966420       0.50000000 </v>
    <v>       0.00000000       0.24945602       0.75035776 </v>
    <v>       0.50000000       0.24958985       0.75149007 </v>
    <v>       0.00000000       0.75054398       0.75035776 </v>
    <v>       0.50000000       0.75041015       0.75149007 </v>
    <v>       0.24945602       0.00000000       0.75035776 </v>
    <v>       0.75054398       0.00000000       0.75035776 </v>
    <v>       0.24958985       0.50000000       0.75149007 </v>
    <v>       0.75041015       0.50000000       0.75149007 </v>
    <v>       0.24945602       0.00000000       0.24964224 </v>
    <v>       0.75054398       0.00000000       0.24964224 </v>
    <v>       0.24958985       0.50000000       0.24850993 </v>
    <v>       0.75041015       0.50000000       0.24850993 </v>
    <v>       0.00000000       0.24945602       0.24964224 </v>
    <v>       0.50000000       0.24958985       0.24850993 </v>
    <v>       0.00000000       0.75054398       0.24964224 </v>
    <v>       0.50000000       0.75041015       0.24850993 </v>
    <v>       0.00000000       0.00000000       0.00000000 </v>
   </varray>
  </structure>
  <varray name="forces" >
   <v>       0.00000041       0.00000041       0.00001191 </v>
   <v>      -0.00000041       0.00000041       0.00001191 </v>
   <v>       0.00000041      -0.00000041       0.00001191 </v>
   <v>      -0.00000041      -0.00000041       0.00001191 </v>
   <v>       0.00000000       0.00000000       0.00001368 </v>
   <v>       0.00000000       0.00000000       0.00000717 </v>
   <v>       0.00000000       0.00000000       0.00000717 </v>
   <v>       0.00000000       0.00000000       0.00000054 </v>
   <v>       0.00000000       0.00000000      -0.00001368 </v>
   <v>       0.00000000       0.00000000      -0.00000717 </v>
   <v>       0.00000000       0.00000000      -0.00000717 </v>
   <v>       0.00000000       0.00000000      -0.00000054 </v>
   <v>       0.00000041       0.00000041      -0.00001191 </v>
   <v>      -0.00000041       0.00000041      -0.00001191 </v>
   <v>       0.00000041      -0.00000041      -0.00001191 </v>
   <v>      -0.00000041      -0.00000041      -0.00001191 </v>
   <v>       0.00000000       0.00000000      -0.00000000 </v>
   <v>       0.00000000       0.00000000      -0.00000000 </v>
   <v>       0.00000000       0.00000000      -0.00000000 </v>
   <v>       0.00000549       0.00000549      -0.00000000 </v>
   <v>      -0.00000549       0.00000549      -0.00000000 </v>
   <v>       0.00000549      -0.00000549      -0.00000000 </v>
   <v>      -0.00000549      -0.00000549      -0.00000000 </v>
   <v>       0.00000000      -0.00000645       0.00000066 </v>
   <v>       0.00000000      -0.00000471      -0.00000999 </v>
   <v>       0.00000000       0.00000645       0.00000066 </v>
   <v>       0.00000000       0.00000471      -0.00000999 </v>
   <v>      -0.00000645       0.00000000       0.00000066 </v>
   <v>       0.00000645       0.00000000       0.00000066 </v>
   <v>      -0.00000471       0.00000000      -0.00000999 </v>
   <v>       0.00000471       0.00000000      -0.00000999 </v>
   <v>      -0.00000645       0.00000000      -0.00000066 </v>
   <v>       0.00000645       0.00000000      -0.00000066 </v>
   <v>      -0.00000471       0.00000000       0.00000999 </v>
   <v>       0.00000471       0.00000000       0.00000999 </v>
   <v>       0.00000000      -0.00000645      -0.00000066 </v>
   <v>       0.00000000      -0.00000471       0.00000999 </v>
   <v>       0.00000000       0.00000645      -0.00000066 </v>
   <v>       0.00000000       0.00000471       0.00000999 </v>
   <v>       0.00000000       0.00000000      -0.00000000 </v>
  </varray>
  <varray name="stress" >
   <v>      43.21589777       0.00000000       0.00000000 </v>
   <v>       0.00000000      43.21589777       0.00000000 </v>
   <v>       0.00000000      -0.00000000      33.11169561 </v>
  </varray>
  <energy>
   <i name="e_fr_energy">   -208.42847130 </i>
   <i name="e_wo_entrp">   -208.42847130 </i>
   <i name="e_0_energy">   -208.42847130 </i>
  </energy>
  <time name="totalsc">  902.91  903.41</time>
 </calculation>
 <calculation>
  <scstep>
   <time name="dav">   29.43   29.46</time>
   <time name="total">   31.64   31.67</time>
   <energy>
    <i name="alphaZ">   1389.84234022 </i>
    <i name="ewald"> -30084.09942027 </i>
    <i name="hartreedc"> -11174.40226230 </i>
    <i name="XCdc">   1255.96342709 </i>
    <i name="pawpsdc">  36609.20830069 </i>
    <i name="pawaedc"> -36009.02466444 </i>
    <i name="eentropy">     -0.00000000 </i>
    <i name="bandstr">  -2537.56803821 </i>
    <i name="atom">  40341.65184589 </i>
    <i name="e_fr_energy">   -208.42847132 </i>
    <i name="e_wo_entrp">   -208.42847132 </i>
    <i name="e_0_energy">   -208.42847132 </i>
   </energy>
  </scstep>
  <scstep>
   <time name="dav">   22.39   22.41</time>
   <time name="total">   24.60   24.63</time>
   <energy>
    <i name="e_fr_energy">   -208.42847131 </i>
    <i name="e_wo_entrp">   -208.42847131 </i>
    <i name="e_0_energy">   -208.42847131 </i>
   </energy>
  </scstep>
  <scstep>
   <time name="dav">   22.32   22.33</time>
   <time name="total">   24.53   24.53</time>
   <energy>
    <i name="e_fr_energy">   -208.42847131 </i>
    <i name="e_wo_entrp">   -208.42847131 </i>
    <i name="e_0_energy">   -208.42847131 </i>
   </energy>
  </scstep>
  <scstep>
   <time name="dav">   22.31   22.32</time>
   <time name="total">   24.52   24.54</time>
   <energy>
    <i name="e_fr_energy">   -208.42847131 </i>
    <i name="e_wo_entrp">   -208.42847131 </i>
    <i name="e_0_energy">   -208.42847131 </i>
   </energy>
  </scstep>
  <scstep>
   <time name="dav">   22.30   22.32</time>
   <time name="total">   23.19   23.20</time>
   <energy>
    <i name="alphaZ">   1389.84234022 </i>
    <i name="ewald"> -30084.09942027 </i>
    <i name="hartreedc"> -11174.40232445 </i>
    <i name="XCdc">   1255.96342597 </i>
    <i name="pawpsdc">  36609.20581307 </i>
    <i name="pawaedc"> -36009.02218060 </i>
    <i name="eentropy">     -0.00000000 </i>
    <i name="bandstr">  -2537.56797115 </i>
    <i name="atom">  40341.65184589 </i>
    <i name="e_fr_energy">   -208.42847131 </i>
    <i name="e_wo_entrp">   -208.42847131 </i>
    <i name="e_0_energy">   -208.42847131 </i>
   </energy>
  </scstep>
  <structure>
   <crystal>
    <varray name="basis" >
     <v>       7.72255666       0.00000000       0.00000000 </v>
     <v>       0.00000000       7.72255666       0.00000000 </v>
     <v>       0.00000000       0.00000000      12.18711128 </v>
    </varray>
    <i name="volume">    726.81349724 </i>
    <varray name="rec_basis" >
     <v>       0.12949079       0.00000000       0.00000000 </v>
     <v>       0.00000000       0.12949079       0.00000000 </v>
     <v>       0.00000000       0.00000000       0.08205390 </v>
    </varray>
   </crystal>
   <varray name="positions" >
    <v>       0.24880490       0.24880490       0.85639671 </v>
    <v>       0.75119510       0.24880490       0.85639671 </v>
    <v>       0.24880490       0.75119510       0.85639671 </v>
    <v>       0.75119510       0.75119510       0.85639671 </v>
    <v>       0.00000000       0.00000000       0.64453741 </v>
    <v>       0.50000000       0.00000000       0.64538247 </v>
    <v>       0.00000000       0.50000000       0.64538247 </v>
    <v>       0.50000000       0.50000000       0.64631664 </v>
    <v>       0.00000000       0.00000000       0.35546259 </v>
    <v>       0.50000000       0.00000000       0.35461753 </v>
    <v>       0.00000000       0.50000000       0.35461753 </v>
    <v>       0.50000000       0.50000000       0.35368336 </v>
    <v>       0.24880490       0.24880490       0.14360329 </v>
    <v>       0.75119510       0.24880490       0.14360329 </v>
    <v>       0.24880490       0.75119510       0.14360329 </v>
    <v>       0.75119510       0.75119510       0.14360329 </v>
    <v>       0.50000000       0.00000000       1.00000000 </v>
    <v>       0.00000000       0.50000000       1.00000000 </v>
    <v>       0.50000000       0.50000000       1.00000000 </v>
    <v>       0.25033583       0.25033583       0.50000000 </v>
    <v>       0.74966417       0.25033583       0.50000000 </v>
    <v>       0.25033583       0.74966417       0.50000000 </v>
    <v>       0.74966417       0.74966417       0.50000000 </v>
    <v>       0.00000000       0.24945598       0.75035777 </v>
    <v>       0.50000000       0.24958982       0.75149003 </v>
    <v>       0.00000000       0.75054402       0.75035777 </v>
    <v>       0.50000000       0.75041018       0.75149003 </v>
    <v>       0.24945598       0.00000000       0.75035777 </v>
    <v>       0.75054402       0.00000000       0.75035777 </v>
    <v>       0.24958982       0.50000000       0.75149003 </v>
    <v>       0.75041018       0.50000000       0.75149003 </v>
    <v>       0.24945598       0.00000000       0.24964223 </v>
    <v>       0.75054402       0.00000000       0.24964223 </v>
    <v>       0.24958982       0.50000000       0.24850997 </v>
    <v>       0.75041018       0.50000000       0.24850997 </v>
    <v>       0.00000000       0.24945598       0.24964223 </v>
    <v>       0.50000000       0.24958982       0.24850997 </v>
    <v>       0.00000000       0.75054402       0.24964223 </v>
    <v>       0.50000000       0.75041018       0.24850997 </v>
    <v>       0.00000000       0.00000000       1.00000000 </v>
   </varray>
  </structure>
  <varray name="forces" >
   <v>      -0.00000003      -0.00000003      -0.00002028 </v>
   <v>       0.00000003      -0.00000003      -0.00002028 </v>
   <v>      -0.00000003       0.00000003      -0.00002028 </v>
   <v>       0.00000003       0.00000003      -0.00002028 </v>
   <v>       0.00000000      -0.00000000      -0.00001214 </v>
   <v>       0.00000000      -0.00000000      -0.00000733 </v>
   <v>      -0.00000000      -0.00000000      -0.00000733 </v>
   <v>      -0.00000000      -0.00000000      -0.00000389 </v>
   <v>      -0.00000000      -0.00000000       0.00001214 </v>
   <v>       0.00000000      -0.00000000       0.00000733 </v>
   <v>       0.00000000      -0.00000000       0.00000733 </v>
   <v>       0.00000000      -0.00000000       0.00000389 </v>
   <v>      -0.00000003      -0.00000003       0.00002028 </v>
   <v>       0.00000003      -0.00000003       0.00002028 </v>
   <v>      -0.00000003       0.00000003       0.00002028 </v>
   <v>       0.00000003       0.00000003       0.00002028 </v>
   <v>      -0.00000000      -0.00000000      -0.00000000 </v>
   <v>      -0.00000000      -0.00000000      -0.00000000 </v>
   <v>      -0.00000000      -0.00000000      -0.00000000 </v>
   <v>       0.00000347       0.00000347      -0.00000000 </v>
   <v>      -0.00000347       0.00000347      -0.00000000 </v>
   <v>       0.00000347      -0.00000347      -0.00000000 </v>
   <v>      -0.00000347      -0.00000347      -0.00000000 </v>
   <v>       0.00000000      -0.00000384       0.00000751 </v>
   <v>      -0.00000000      -0.00000317       0.00000110 </v>
   <v>       0.00000000       0.00000384       0.00000751 </v>
   <v>      -0.00000000       0.00000317       0.00000110 </v>
   <v>      -0.00000384      -0.00000000       0.00000751 </v>
   <v>       0.00000384      -0.00000000       0.00000751 </v>
   <v>      -0.00000317      -0.00000000       0.00000110 </v>
   <v>       0.00000317      -0.00000000       0.00000110 </v>
   <v>      -0.00000384      -0.00000000      -0.00000751 </v>
   <v>       0.00000384      -0.00000000      -0.00000751 </v>
   <v>      -0.00000317      -0.00000000      -0.00000110 </v>
   <v>       0.00000317      -0.00000000      -0.00000110 </v>
   <v>      -0.00000000      -0.00000384      -0.00000751 </v>
   <v>      -0.00000000      -0.00000317      -0.00000110 </v>
   <v>      -0.00000000       0.00000384      -0.00000751 </v>
   <v>       0.00000000       0.00000317      -0.00000110 </v>
   <v>      -0.00000000      -0.00000000      -0.00000000 </v>
  </varray>
  <varray name="stress" >
   <v>      43.21476406       0.00000000      -0.00000000 </v>
   <v>       0.00000000      43.21476406       0.00000000 </v>
   <v>       0.00000000       0.00000000      33.11023831 </v>
  </varray>
  <energy>
   <i name="e_fr_energy">   -208.42847131 </i>
   <i name="e_wo_entrp">   -208.42847131 </i>
   <i name="e_0_energy">   -208.42847131 </i>
  </energy>
  <time name="totalsc">  162.44  162.54</time>
 </calculation>
 <calculation>
  <scstep>
   <time name="dav">   22.32   22.34</time>
   <time name="total">   24.53   24.55</time>
   <energy>
    <i name="alphaZ">   1389.84234022 </i>
    <i name="ewald"> -30084.09913748 </i>
    <i name="hartreedc"> -11174.40258738 </i>
    <i name="XCdc">   1255.96342675 </i>
    <i name="pawpsdc">  36609.20559909 </i>
    <i name="pawaedc"> -36009.02196806 </i>
    <i name="eentropy">     -0.00000000 </i>
    <i name="bandstr">  -2537.56799034 </i>
    <i name="atom">  40341.65184589 </i>
    <i name="e_fr_energy">   -208.42847131 </i>
    <i name="e_wo_entrp">   -208.42847131 </i>
    <i name="e_0_energy">   -208.42847131 </i>
   </energy>
  </scstep>
  <scstep>
   <time name="dav">   22.31   22.32</time>
   <time name="total">   24.53   24.54</time>
   <energy>
    <i name="e_fr_energy">   -208.42847131 </i>
    <i name="e_wo_entrp">   -208.42847131 </i>
    <i name="e_0_energy">   -208.42847131 </i>
   </energy>
  </scstep>
  <scstep>
   <time name="dav">   22.23   22.24</time>
   <time name="total">   24.44   24.45</time>
   <energy>
    <i name="e_fr_energy">   -208.42847131 </i>
    <i name="e_wo_entrp">   -208.42847131 </i>
    <i name="e_0_energy">   -208.42847131 </i>
   </energy>
  </scstep>
  <scstep>
   <time name="dav">   22.13   22.14</time>
   <time name="total">   24.33   24.34</time>
   <energy>
    <i name="e_fr_energy">   -208.42847131 </i>
    <i name="e_wo_entrp">   -208.42847131 </i>
    <i name="e_0_energy">   -208.42847131 </i>
   </energy>
  </scstep>
  <scstep>
   <time name="dav">   22.12   22.13</time>
   <time name="total">   23.02   23.03</time>
   <energy>
    <i name="alphaZ">   1389.84234022 </i>
    <i name="ewald"> -30084.09913748 </i>
    <i name="hartreedc"> -11174.40258107 </i>
    <i name="XCdc">   1255.96342723 </i>
    <i name="pawpsdc">  36609.20561730 </i>
    <i name="pawaedc"> -36009.02199049 </i>
    <i name="eentropy">     -0.00000000 </i>
    <i name="bandstr">  -2537.56799291 </i>
    <i name="atom">  40341.65184589 </i>
    <i name="e_fr_energy">   -208.42847131 </i>
    <i name="e_wo_entrp">   -208.42847131 </i>
    <i name="e_0_energy">   -208.42847131 </i>
   </energy>
  </scstep>
  <structure>
   <crystal>
    <varray name="basis" >
     <v>       7.72255666       0.00000000       0.00000000 </v>
     <v>       0.00000000       7.72255666       0.00000000 </v>
     <v>       0.00000000       0.00000000      12.18711128 </v>
    </varray>
    <i name="volume">    726.81349724 </i>
    <varray name="rec_basis" >
     <v>       0.12949079       0.00000000       0.00000000 </v>
     <v>       0.00000000       0.12949079       0.00000000 </v>
     <v>       0.00000000       0.00000000       0.08205390 </v>
    </varray>
   </crystal>
   <varray name="positions" >
    <v>       0.24880490       0.24880490       0.85639669 </v>
    <v>       0.75119510       0.24880490       0.85639669 </v>
    <v>       0.24880490       0.75119510       0.85639669 </v>
    <v>       0.75119510       0.75119510       0.85639669 </v>
    <v>       0.00000000       0.00000000       0.64453739 </v>
    <v>       0.50000000       0.00000000       0.64538246 </v>
    <v>       0.00000000       0.50000000       0.64538246 </v>
    <v>       0.50000000       0.50000000       0.64631664 </v>
    <v>       0.00000000       0.00000000       0.35546261 </v>
    <v>       0.50000000       0.00000000       0.35461754 </v>
    <v>       0.00000000       0.50000000       0.35461754 </v>
    <v>       0.50000000       0.50000000       0.35368336 </v>
    <v>       0.24880490       0.24880490       0.14360331 </v>
    <v>       0.75119510       0.24880490       0.14360331 </v>
    <v>       0.24880490       0.75119510       0.14360331 </v>
    <v>       0.75119510       0.75119510       0.14360331 </v>
    <v>       0.50000000       0.00000000       0.00000000 </v>
    <v>       0.00000000       0.50000000       0.00000000 </v>
    <v>       0.50000000       0.50000000       0.00000000 </v>
    <v>       0.25033582       0.25033582       0.50000000 </v>
    <v>       0.74966418       0.25033582       0.50000000 </v>
    <v>       0.25033582       0.74966418       0.50000000 </v>
    <v>       0.74966418       0.74966418       0.50000000 </v>
    <v>       0.00000000       0.24945600       0.75035777 </v>
    <v>       0.50000000       0.24958984       0.75149005 </v>
    <v>       0.00000000       0.75054400       0.75035777 </v>
    <v>       0.50000000       0.75041016       0.75149005 </v>
    <v>       0.24945600       0.00000000       0.75035777 </v>
    <v>       0.75054400       0.00000000       0.75035777 </v>
    <v>       0.24958984       0.50000000       0.75149005 </v>
    <v>       0.75041016       0.50000000       0.75149005 </v>
    <v>       0.24945600       0.00000000       0.24964223 </v>
    <v>       0.75054400       0.00000000       0.24964223 </v>
    <v>       0.24958984       0.50000000       0.24850995 </v>
    <v>       0.75041016       0.50000000       0.24850995 </v>
    <v>       0.00000000       0.24945600       0.24964223 </v>
    <v>       0.50000000       0.24958984       0.24850995 </v>
    <v>       0.00000000       0.75054400       0.24964223 </v>
    <v>       0.50000000       0.75041016       0.24850995 </v>
    <v>       0.00000000       0.00000000       0.00000000 </v>
   </varray>
  </structure>
  <varray name="forces" >
   <v>       0.00000139       0.00000139       0.00001720 </v>
   <v>      -0.00000139       0.00000139       0.00001720 </v>
   <v>       0.00000139      -0.00000139       0.00001720 </v>
   <v>      -0.00000139      -0.00000139       0.00001720 </v>
   <v>       0.00000000      -0.00000000       0.00003050 </v>
   <v>      -0.00000000      -0.00000000       0.00001633 </v>
   <v>       0.00000000      -0.00000000       0.00001633 </v>
   <v>       0.00000000      -0.00000000       0.00000116 </v>
   <v>       0.00000000      -0.00000000      -0.00003050 </v>
   <v>       0.00000000      -0.00000000      -0.00001633 </v>
   <v>      -0.00000000      -0.00000000      -0.00001633 </v>
   <v>      -0.00000000      -0.00000000      -0.00000116 </v>
   <v>       0.00000139       0.00000139      -0.00001720 </v>
   <v>      -0.00000139       0.00000139      -0.00001720 </v>
   <v>       0.00000139      -0.00000139      -0.00001720 </v>
   <v>      -0.00000139      -0.00000139      -0.00001720 </v>
   <v>      -0.00000000      -0.00000000       0.00000000 </v>
   <v>       0.00000000      -0.00000000       0.00000000 </v>
   <v>      -0.00000000      -0.00000000       0.00000000 </v>
   <v>       0.00000448       0.00000448       0.00000000 </v>
   <v>      -0.00000448       0.00000448       0.00000000 </v>
   <v>       0.00000448      -0.00000448       0.00000000 </v>
   <v>      -0.00000448      -0.00000448       0.00000000 </v>
   <v>      -0.00000000      -0.00000610       0.00000598 </v>
   <v>      -0.00000000      -0.00000493      -0.00000389 </v>
   <v>       0.00000000       0.00000610       0.00000598 </v>
   <v>      -0.00000000       0.00000493      -0.00000389 </v>
   <v>      -0.00000610      -0.00000000       0.00000598 </v>
   <v>       0.00000610      -0.00000000       0.00000598 </v>
   <v>      -0.00000493      -0.00000000      -0.00000389 </v>
   <v>       0.00000493      -0.00000000      -0.00000389 </v>
   <v>      -0.00000610      -0.00000000      -0.00000598 </v>
   <v>       0.00000610      -0.00000000      -0.00000598 </v>
   <v>      -0.00000493      -0.00000000       0.00000389 </v>
   <v>       0.00000493      -0.00000000       0.00000389 </v>
   <v>       0.00000000      -0.00000610      -0.00000598 </v>
   <v>      -0.00000000      -0.00000493       0.00000389 </v>
   <v>      -0.00000000       0.00000610      -0.00000598 </v>
   <v>      -0.00000000       0.00000493       0.00000389 </v>
   <v>       0.00000000      -0.00000000       0.00000000 </v>
  </varray>
  <varray name="stress" >
   <v>      43.21478663       0.00000000      -0.00000000 </v>
   <v>       0.00000000      43.21478663       0.00000000 </v>
   <v>       0.00000000       0.00000000      33.11027881 </v>
  </varray>
  <energy>
   <i name="e_fr_energy">   -208.42847131 </i>
   <i name="e_wo_entrp">   -208.42847131 </i>
   <i name="e_0_energy">   -208.42847131 </i>
  </energy>
  <time name="totalsc">  154.66  154.74</time>
 </calculation>
 <calculation>
  <scstep>
   <time name="dav">   21.97   22.00</time>
   <time name="total">   24.18   24.20</time>
   <energy>
    <i name="alphaZ">   1389.84234022 </i>
    <i name="ewald"> -30084.09932410 </i>
    <i name="hartreedc"> -11174.40240551 </i>
    <i name="XCdc">   1255.96342665 </i>
    <i name="pawpsdc">  36609.20562852 </i>
    <i name="pawaedc"> -36009.02200208 </i>
    <i name="eentropy">     -0.00000000 </i>
    <i name="bandstr">  -2537.56798090 </i>
    <i name="atom">  40341.65184589 </i>
    <i name="e_fr_energy">   -208.42847131 </i>
    <i name="e_wo_entrp">   -208.42847131 </i>
    <i name="e_0_energy">   -208.42847131 </i>
   </energy>
  </scstep>
  <scstep>
   <time name="dav">   21.96   21.96</time>
   <time name="total">   24.16   24.17</time>
   <energy>
    <i name="e_fr_energy">   -208.42847131 </i>
    <i name="e_wo_entrp">   -208.42847131 </i>
    <i name="e_0_energy">   -208.42847131 </i>
   </energy>
  </scstep>
  <scstep>
   <time name="dav">   21.74   21.76</time>
   <time name="total">   23.94   23.97</time>
   <energy>
    <i name="e_fr_energy">   -208.42847131 </i>
    <i name="e_wo_entrp">   -208.42847131 </i>
    <i name="e_0_energy">   -208.42847131 </i>
   </energy>
  </scstep>
  <scstep>
   <time name="dav">   21.64   21.66</time>
   <time name="total">   23.84   23.87</time>
   <energy>
    <i name="e_fr_energy">   -208.42847131 </i>
    <i name="e_wo_entrp">   -208.42847131 </i>
    <i name="e_0_energy">   -208.42847131 </i>
   </energy>
  </scstep>
  <scstep>
   <time name="dav">   21.66   21.67</time>
   <time name="total">   22.55   22.57</time>
   <energy>
    <i name="alphaZ">   1389.84234022 </i>
    <i name="ewald"> -30084.09932410 </i>
    <i name="hartreedc"> -11174.40240331 </i>
    <i name="XCdc">   1255.96342617 </i>
    <i name="pawpsdc">  36609.20555046 </i>
    <i name="pawaedc"> -36009.02192337 </i>
    <i name="eentropy">     -0.00000000 </i>
    <i name="bandstr">  -2537.56798327 </i>
    <i name="atom">  40341.65184589 </i>
    <i name="e_fr_energy">   -208.42847131 </i>
    <i name="e_wo_entrp">   -208.42847131 </i>
    <i name="e_0_energy">   -208.42847131 </i>
   </energy>
  </scstep>
  <structure>
   <crystal>
    <varray name="basis" >
     <v>       7.72255666       0.00000000       0.00000000 </v>
     <v>       0.00000000       7.72255666       0.00000000 </v>
     <v>       0.00000000       0.00000000      12.18711128 </v>
    </varray>
    <i name="volume">    726.81349724 </i>
    <varray name="rec_basis" >
     <v>       0.12949079       0.00000000       0.00000000 </v>
     <v>       0.00000000       0.12949079       0.00000000 </v>
     <v>       0.00000000       0.00000000       0.08205390 </v>
    </varray>
   </crystal>
   <varray name="positions" >
    <v>       0.24880490       0.24880490       0.85639670 </v>
    <v>       0.75119510       0.24880490       0.85639670 </v>
    <v>       0.24880490       0.75119510       0.85639670 </v>
    <v>       0.75119510       0.75119510       0.85639670 </v>
    <v>       0.00000000       0.00000000       0.64453740 </v>
    <v>       0.50000000       0.00000000       0.64538247 </v>
    <v>       0.00000000       0.50000000       0.64538247 </v>
    <v>       0.50000000       0.50000000       0.64631664 </v>
    <v>       0.00000000       0.00000000       0.35546260 </v>
    <v>       0.50000000       0.00000000       0.35461753 </v>
    <v>       0.00000000       0.50000000       0.35461753 </v>
    <v>       0.50000000       0.50000000       0.35368336 </v>
    <v>       0.24880490       0.24880490       0.14360330 </v>
    <v>       0.75119510       0.24880490       0.14360330 </v>
    <v>       0.24880490       0.75119510       0.14360330 </v>
    <v>       0.75119510       0.75119510       0.14360330 </v>
    <v>       0.50000000       0.00000000       1.00000000 </v>
    <v>       0.00000000       0.50000000       1.00000000 </v>
    <v>       0.50000000       0.50000000       1.00000000 </v>
    <v>       0.25033583       0.25033583       0.50000000 </v>
    <v>       0.74966417       0.25033583       0.50000000 </v>
    <v>       0.25033583       0.74966417       0.50000000 </v>
    <v>       0.74966417       0.74966417       0.50000000 </v>
    <v>       0.00000000       0.24945599       0.75035777 </v>
    <v>       0.50000000       0.24958983       0.75149004 </v>
    <v>       0.00000000       0.75054401       0.75035777 </v>
    <v>       0.50000000       0.75041017       0.75149004 </v>
    <v>       0.24945599       0.00000000       0.75035777 </v>
    <v>       0.75054401       0.00000000       0.75035777 </v>
    <v>       0.24958983       0.50000000       0.75149004 </v>
    <v>       0.75041017       0.50000000       0.75149004 </v>
    <v>       0.24945599       0.00000000       0.24964223 </v>
    <v>       0.75054401       0.00000000       0.24964223 </v>
    <v>       0.24958983       0.50000000       0.24850996 </v>
    <v>       0.75041017       0.50000000       0.24850996 </v>
    <v>       0.00000000       0.24945599       0.24964223 </v>
    <v>       0.50000000       0.24958983       0.24850996 </v>
    <v>       0.00000000       0.75054401       0.24964223 </v>
    <v>       0.50000000       0.75041017       0.24850996 </v>
    <v>       0.00000000       0.00000000       1.00000000 </v>
   </varray>
  </structure>
  <varray name="forces" >
   <v>       0.00000051       0.00000051      -0.00001457 </v>
   <v>      -0.00000051       0.00000051      -0.00001457 </v>
   <v>       0.00000051      -0.00000051      -0.00001457 </v>
   <v>      -0.00000051      -0.00000051      -0.00001457 </v>
   <v>      -0.00000000       0.00000000      -0.00000382 </v>
   <v>      -0.00000000       0.00000000      -0.00000379 </v>
   <v>       0.00000000      -0.00000000      -0.00000379 </v>
   <v>      -0.00000000       0.00000000      -0.00000198 </v>
   <v>       0.00000000      -0.00000000       0.00000382 </v>
   <v>      -0.00000000      -0.00000000       0.00000379 </v>
   <v>      -0.00000000       0.00000000       0.00000379 </v>
   <v>      -0.00000000       0.00000000       0.00000198 </v>
   <v>       0.00000051       0.00000051       0.00001457 </v>
   <v>      -0.00000051       0.00000051       0.00001457 </v>
   <v>       0.00000051      -0.00000051       0.00001457 </v>
   <v>      -0.00000051      -0.00000051       0.00001457 </v>
   <v>       0.00000000       0.00000000      -0.00000000 </v>
   <v>      -0.00000000      -0.00000000      -0.00000000 </v>
   <v>       0.00000000      -0.00000000      -0.00000000 </v>
   <v>       0.00000385       0.00000385      -0.00000000 </v>
   <v>      -0.00000385       0.00000385      -0.00000000 </v>
   <v>       0.00000385      -0.00000385      -0.00000000 </v>
   <v>      -0.00000385      -0.00000385      -0.00000000 </v>
   <v>       0.00000000      -0.00000397       0.00000706 </v>
   <v>       0.00000000      -0.00000334       0.00000023 </v>
   <v>      -0.00000000       0.00000397       0.00000706 </v>
   <v>      -0.00000000       0.00000334       0.00000023 </v>
   <v>      -0.00000397      -0.00000000       0.00000706 </v>
   <v>       0.00000397       0.00000000       0.00000706 </v>
   <v>      -0.00000334       0.00000000       0.00000023 </v>
   <v>       0.00000334       0.00000000       0.00000023 </v>
   <v>      -0.00000397      -0.00000000      -0.00000706 </v>
   <v>       0.00000397       0.00000000      -0.00000706 </v>
   <v>      -0.00000334       0.00000000      -0.00000023 </v>
   <v>       0.00000334       0.00000000      -0.00000023 </v>
   <v>       0.00000000      -0.00000397      -0.00000706 </v>
   <v>       0.00000000      -0.00000334      -0.00000023 </v>
   <v>      -0.00000000       0.00000397      -0.00000706 </v>
   <v>      -0.00000000       0.00000334      -0.00000023 </v>
   <v>       0.00000000       0.00000000      -0.00000000 </v>
  </varray>
  <varray name="stress" >
   <v>      43.21475370       0.00000000       0.00000000 </v>
   <v>       0.00000000      43.21475370       0.00000000 </v>
   <v>       0.00000000       0.00000000      33.11023909 </v>
  </varray>
  <energy>
   <i name="e_fr_energy">   -208.42847131 </i>
   <i name="e_wo_entrp">   -208.42847131 </i>
   <i name="e_0_energy">   -208.42847131 </i>
  </energy>
  <time name="totalsc">  152.56  152.68</time>
 </calculation>
 <calculation>
  <scstep>
   <time name="dav">   21.65   21.67</time>
   <time name="total">   23.85   23.88</time>
   <energy>
    <i name="alphaZ">   1389.84234022 </i>
    <i name="ewald"> -30084.09924029 </i>
    <i name="hartreedc"> -11174.40248215 </i>
    <i name="XCdc">   1255.96342644 </i>
    <i name="pawpsdc">  36609.20553836 </i>
    <i name="pawaedc"> -36009.02191121 </i>
    <i name="eentropy">     -0.00000000 </i>
    <i name="bandstr">  -2537.56798858 </i>
    <i name="atom">  40341.65184589 </i>
    <i name="e_fr_energy">   -208.42847131 </i>
    <i name="e_wo_entrp">   -208.42847131 </i>
    <i name="e_0_energy">   -208.42847131 </i>
   </energy>
  </scstep>
  <scstep>
   <time name="dav">   21.65   21.67</time>
   <time name="total">   23.88   23.90</time>
   <energy>
    <i name="e_fr_energy">   -208.42847131 </i>
    <i name="e_wo_entrp">   -208.42847131 </i>
    <i name="e_0_energy">   -208.42847131 </i>
   </energy>
  </scstep>
  <scstep>
   <time name="dav">   21.66   21.67</time>
   <time name="total">   23.88   23.89</time>
   <energy>
    <i name="e_fr_energy">   -208.42847131 </i>
    <i name="e_wo_entrp">   -208.42847131 </i>
    <i name="e_0_energy">   -208.42847131 </i>
   </energy>
  </scstep>
  <scstep>
   <time name="dav">   21.64   21.66</time>
   <time name="total">   23.84   23.86</time>
   <energy>
    <i name="e_fr_energy">   -208.42847131 </i>
    <i name="e_wo_entrp">   -208.42847131 </i>
    <i name="e_0_energy">   -208.42847131 </i>
   </energy>
  </scstep>
  <scstep>
   <time name="dav">   21.65   21.66</time>
   <time name="total">   22.54   22.56</time>
   <energy>
    <i name="alphaZ">   1389.84234022 </i>
    <i name="ewald"> -30084.09924029 </i>
    <i name="hartreedc"> -11174.40248294 </i>
    <i name="XCdc">   1255.96342669 </i>
    <i name="pawpsdc">  36609.20557344 </i>
    <i name="pawaedc"> -36009.02194663 </i>
    <i name="eentropy">     -0.00000000 </i>
    <i name="bandstr">  -2537.56798769 </i>
    <i name="atom">  40341.65184589 </i>
    <i name="e_fr_energy">   -208.42847131 </i>
    <i name="e_wo_entrp">   -208.42847131 </i>
    <i name="e_0_energy">   -208.42847131 </i>
   </energy>
  </scstep>
  <structure>
   <crystal>
    <varray name="basis" >
     <v>       7.72255666       0.00000000       0.00000000 </v>
     <v>       0.00000000       7.72255666       0.00000000 </v>
     <v>       0.00000000       0.00000000      12.18711128 </v>
    </varray>
    <i name="volume">    726.81349724 </i>
    <varray name="rec_basis" >
     <v>       0.12949079       0.00000000       0.00000000 </v>
     <v>       0.00000000       0.12949079       0.00000000 </v>
     <v>       0.00000000       0.00000000       0.08205390 </v>
    </varray>
   </crystal>
   <varray name="positions" >
    <v>       0.24880490       0.24880490       0.85639670 </v>
    <v>       0.75119510       0.24880490       0.85639670 </v>
    <v>       0.24880490       0.75119510       0.85639670 </v>
    <v>       0.75119510       0.75119510       0.85639670 </v>
    <v>       0.00000000       0.00000000       0.64453740 </v>
    <v>       0.50000000       0.00000000       0.64538247 </v>
    <v>       0.00000000       0.50000000       0.64538247 </v>
    <v>       0.50000000       0.50000000       0.64631664 </v>
    <v>       0.00000000       0.00000000       0.35546260 </v>
    <v>       0.50000000       0.00000000       0.35461753 </v>
    <v>       0.00000000       0.50000000       0.35461753 </v>
    <v>       0.50000000       0.50000000       0.35368336 </v>
    <v>       0.24880490       0.24880490       0.14360330 </v>
    <v>       0.75119510       0.24880490       0.14360330 </v>
    <v>       0.24880490       0.75119510       0.14360330 </v>
    <v>       0.75119510       0.75119510       0.14360330 </v>
    <v>       0.50000000       0.00000000       0.00000000 </v>
    <v>       0.00000000       0.50000000       0.00000000 </v>
    <v>       0.50000000       0.50000000       0.00000000 </v>
    <v>       0.25033582       0.25033582       0.50000000 </v>
    <v>       0.74966418       0.25033582       0.50000000 </v>
    <v>       0.25033582       0.74966418       0.50000000 </v>
    <v>       0.74966418       0.74966418       0.50000000 </v>
    <v>       0.00000000       0.24945599       0.75035777 </v>
    <v>       0.50000000       0.24958983       0.75149004 </v>
    <v>       0.00000000       0.75054401       0.75035777 </v>
    <v>       0.50000000       0.75041017       0.75149004 </v>
    <v>       0.24945599       0.00000000       0.75035777 </v>
    <v>       0.75054401       0.00000000       0.75035777 </v>
    <v>       0.24958983       0.50000000       0.75149004 </v>
    <v>       0.75041017       0.50000000       0.75149004 </v>
    <v>       0.24945599       0.00000000       0.24964223 </v>
    <v>       0.75054401       0.00000000       0.24964223 </v>
    <v>       0.24958983       0.50000000       0.24850996 </v>
    <v>       0.75041017       0.50000000       0.24850996 </v>
    <v>       0.00000000       0.24945599       0.24964223 </v>
    <v>       0.50000000       0.24958983       0.24850996 </v>
    <v>       0.00000000       0.75054401       0.24964223 </v>
    <v>       0.50000000       0.75041017       0.24850996 </v>
    <v>       0.00000000       0.00000000       0.00000000 </v>
   </varray>
  </structure>
  <varray name="forces" >
   <v>       0.00000104       0.00000104       0.00000366 </v>
   <v>      -0.00000104       0.00000104       0.00000366 </v>
   <v>       0.00000104      -0.00000104       0.00000366 </v>
   <v>      -0.00000104      -0.00000104       0.00000366 </v>
   <v>       0.00000000       0.00000000       0.00001570 </v>
   <v>       0.00000000       0.00000000       0.00000775 </v>
   <v>       0.00000000       0.00000000       0.00000775 </v>
   <v>      -0.00000000       0.00000000      -0.00000034 </v>
   <v>      -0.00000000       0.00000000      -0.00001570 </v>
   <v>       0.00000000       0.00000000      -0.00000775 </v>
   <v>      -0.00000000       0.00000000      -0.00000775 </v>
   <v>       0.00000000       0.00000000       0.00000034 </v>
   <v>       0.00000104       0.00000104      -0.00000366 </v>
   <v>      -0.00000104       0.00000104      -0.00000366 </v>
   <v>       0.00000104      -0.00000104      -0.00000366 </v>
   <v>      -0.00000104      -0.00000104      -0.00000366 </v>
   <v>       0.00000000       0.00000000      -0.00000000 </v>
   <v>       0.00000000       0.00000000      -0.00000000 </v>
   <v>       0.00000000       0.00000000      -0.00000000 </v>
   <v>       0.00000419       0.00000419      -0.00000000 </v>
   <v>      -0.00000419       0.00000419      -0.00000000 </v>
   <v>       0.00000419      -0.00000419      -0.00000000 </v>
   <v>      -0.00000419      -0.00000419      -0.00000000 </v>
   <v>      -0.00000000      -0.00000512       0.00000668 </v>
   <v>      -0.00000000      -0.00000421      -0.00000182 </v>
   <v>      -0.00000000       0.00000512       0.00000668 </v>
   <v>      -0.00000000       0.00000421      -0.00000182 </v>
   <v>      -0.00000512       0.00000000       0.00000668 </v>
   <v>       0.00000512       0.00000000       0.00000668 </v>
   <v>      -0.00000421       0.00000000      -0.00000182 </v>
   <v>       0.00000421       0.00000000      -0.00000182 </v>
   <v>      -0.00000512       0.00000000      -0.00000668 </v>
   <v>       0.00000512       0.00000000      -0.00000668 </v>
   <v>      -0.00000421       0.00000000       0.00000182 </v>
   <v>       0.00000421       0.00000000       0.00000182 </v>
   <v>      -0.00000000      -0.00000512      -0.00000668 </v>
   <v>      -0.00000000      -0.00000421       0.00000182 </v>
   <v>       0.00000000       0.00000512      -0.00000668 </v>
   <v>       0.00000000       0.00000421       0.00000182 </v>
   <v>       0.00000000       0.00000000      -0.00000000 </v>
  </varray>
  <varray name="stress" >
   <v>      43.21476920       0.00000000      -0.00000000 </v>
   <v>       0.00000000      43.21476920      -0.00000000 </v>
   <v>       0.00000000       0.00000000      33.11025848 </v>
  </varray>
  <energy>
   <i name="e_fr_energy">   -208.42847131 </i>
   <i name="e_wo_entrp">   -208.42847131 </i>
   <i name="e_0_energy">   -208.42847131 </i>
  </energy>
  <time name="totalsc">  151.87  151.98</time>
 </calculation>
 <calculation>
  <scstep>
   <time name="dav">   21.67   21.69</time>
   <time name="total">   23.89   23.91</time>
   <energy>
    <i name="alphaZ">   1389.84234022 </i>
    <i name="ewald"> -30084.09929260 </i>
    <i name="hartreedc"> -11174.40243352 </i>
    <i name="XCdc">   1255.96342651 </i>
    <i name="pawpsdc">  36609.20557871 </i>
    <i name="pawaedc"> -36009.02195198 </i>
    <i name="eentropy">     -0.00000000 </i>
    <i name="bandstr">  -2537.56798455 </i>
    <i name="atom">  40341.65184589 </i>
    <i name="e_fr_energy">   -208.42847131 </i>
    <i name="e_wo_entrp">   -208.42847131 </i>
    <i name="e_0_energy">   -208.42847131 </i>
   </energy>
  </scstep>
  <scstep>
   <time name="dav">   21.68   21.68</time>
   <time name="total">   23.89   23.90</time>
   <energy>
    <i name="e_fr_energy">   -208.42847131 </i>
    <i name="e_wo_entrp">   -208.42847131 </i>
    <i name="e_0_energy">   -208.42847131 </i>
   </energy>
  </scstep>
  <scstep>
   <time name="dav">   21.67   21.68</time>
   <time name="total">   23.87   23.88</time>
   <energy>
    <i name="e_fr_energy">   -208.42847131 </i>
    <i name="e_wo_entrp">   -208.42847131 </i>
    <i name="e_0_energy">   -208.42847131 </i>
   </energy>
  </scstep>
  <scstep>
   <time name="dav">   21.65   21.67</time>
   <time name="total">   23.87   23.88</time>
   <energy>
    <i name="e_fr_energy">   -208.42847131 </i>
    <i name="e_wo_entrp">   -208.42847131 </i>
    <i name="e_0_energy">   -208.42847131 </i>
   </energy>
  </scstep>
  <scstep>
   <time name="dav">   21.59   21.60</time>
   <time name="total">   22.47   22.49</time>
   <energy>
    <i name="alphaZ">   1389.84234022 </i>
    <i name="ewald"> -30084.09929260 </i>
    <i name="hartreedc"> -11174.40243287 </i>
    <i name="XCdc">   1255.96342636 </i>
    <i name="pawpsdc">  36609.20555889 </i>
    <i name="pawaedc"> -36009.02193195 </i>
    <i name="eentropy">     -0.00000000 </i>
    <i name="bandstr">  -2537.56798527 </i>
    <i name="atom">  40341.65184589 </i>
    <i name="e_fr_energy">   -208.42847131 </i>
    <i name="e_wo_entrp">   -208.42847131 </i>
    <i name="e_0_energy">   -208.42847131 </i>
   </energy>
  </scstep>
  <structure>
   <crystal>
    <varray name="basis" >
     <v>       7.72255666       0.00000000       0.00000000 </v>
     <v>       0.00000000       7.72255666       0.00000000 </v>
     <v>       0.00000000       0.00000000      12.18711128 </v>
    </varray>
    <i name="volume">    726.81349724 </i>
    <varray name="rec_basis" >
     <v>       0.12949079       0.00000000       0.00000000 </v>
     <v>       0.00000000       0.12949079       0.00000000 </v>
     <v>       0.00000000       0.00000000       0.08205390 </v>
    </varray>
   </crystal>
   <varray name="positions" >
    <v>       0.24880490       0.24880490       0.85639670 </v>
    <v>       0.75119510       0.24880490       0.85639670 </v>
    <v>       0.24880490       0.75119510       0.85639670 </v>
    <v>       0.75119510       0.75119510       0.85639670 </v>
    <v>       0.00000000       0.00000000       0.64453740 </v>
    <v>       0.50000000       0.00000000       0.64538247 </v>
    <v>       0.00000000       0.50000000       0.64538247 </v>
    <v>       0.50000000       0.50000000       0.64631664 </v>
    <v>       0.00000000       0.00000000       0.35546260 </v>
    <v>       0.50000000       0.00000000       0.35461753 </v>
    <v>       0.00000000       0.50000000       0.35461753 </v>
    <v>       0.50000000       0.50000000       0.35368336 </v>
    <v>       0.24880490       0.24880490       0.14360330 </v>
    <v>       0.75119510       0.24880490       0.14360330 </v>
    <v>       0.24880490       0.75119510       0.14360330 </v>
    <v>       0.75119510       0.75119510       0.14360330 </v>
    <v>       0.50000000       0.00000000       1.00000000 </v>
    <v>       0.00000000       0.50000000       1.00000000 </v>
    <v>       0.50000000       0.50000000       1.00000000 </v>
    <v>       0.25033583       0.25033583       0.50000000 </v>
    <v>       0.74966417       0.25033583       0.50000000 </v>
    <v>       0.25033583       0.74966417       0.50000000 </v>
    <v>       0.74966417       0.74966417       0.50000000 </v>
    <v>       0.00000000       0.24945599       0.75035777 </v>
    <v>       0.50000000       0.24958983       0.75149004 </v>
    <v>       0.00000000       0.75054401       0.75035777 </v>
    <v>       0.50000000       0.75041017       0.75149004 </v>
    <v>       0.24945599       0.00000000       0.75035777 </v>
    <v>       0.75054401       0.00000000       0.75035777 </v>
    <v>       0.24958983       0.50000000       0.75149004 </v>
    <v>       0.75041017       0.50000000       0.75149004 </v>
    <v>       0.24945599       0.00000000       0.24964223 </v>
    <v>       0.75054401       0.00000000       0.24964223 </v>
    <v>       0.24958983       0.50000000       0.24850996 </v>
    <v>       0.75041017       0.50000000       0.24850996 </v>
    <v>       0.00000000       0.24945599       0.24964223 </v>
    <v>       0.50000000       0.24958983       0.24850996 </v>
[...]
       <r>    6.5148    1.0000 </r>
       <r>    6.5336    1.0000 </r>
       <r>    8.6037    0.0000 </r>
       <r>    8.6362    0.0000 </r>
       <r>    8.6362    0.0000 </r>
       <r>    8.6708    0.0000 </r>
       <r>    9.3958    0.0000 </r>
       <r>    9.4279    0.0000 </r>
       <r>    9.4279    0.0000 </r>
       <r>    9.4598    0.0000 </r>
       <r>    9.7886    0.0000 </r>
       <r>    9.7984    0.0000 </r>
       <r>    9.8184    0.0000 </r>
       <r>    9.8184    0.0000 </r>
       <r>   10.1119    0.0000 </r>
       <r>   10.1309    0.0000 </r>
       <r>   10.1552    0.0000 </r>
       <r>   10.1552    0.0000 </r>
       <r>   10.4680    0.0000 </r>
       <r>   10.4680    0.0000 </r>
       <r>   10.5097    0.0000 </r>
       <r>   10.5355    0.0000 </r>
       <r>   10.5387    0.0000 </r>
       <r>   10.5614    0.0000 </r>
       <r>   10.5614    0.0000 </r>
       <r>   10.5850    0.0000 </r>
       <r>   11.4399    0.0000 </r>
       <r>   11.4399    0.0000 </r>
       <r>   11.4653    0.0000 </r>
       <r>   11.4668    0.0000 </r>
       <r>   11.5495    0.0000 </r>
       <r>   11.5495    0.0000 </r>
       <r>   11.5513    0.0000 </r>
       <r>   11.5639    0.0000 </r>
       <r>   12.0735    0.0000 </r>
       <r>   12.1096    0.0000 </r>
       <r>   12.1096    0.0000 </r>
       <r>   12.1433    0.0000 </r>
       <r>   12.1663    0.0000 </r>
       <r>   12.1664    0.0000 </r>
       <r>   12.2272    0.0000 </r>
       <r>   12.2303    0.0000 </r>
      </set>
     </set>
    </set>
   </array>
  </eigenvalues>
  <separator name="orbital magnetization" >
   <v name="MAGDIPOLOUT">      0.00000000      0.00000000      0.00000000</v>
  </separator>
  <dos>
   <i name="efermi">      7.02352428 </i>
   <total>
    <array>
     <dimension dim="1">gridpoints</dimension>
     <dimension dim="2">spin</dimension>
     <field>energy</field>
     <field>total</field>
     <field>integrated</field>
     <set>
      <set comment="spin 1">
       <r>   -17.6443     0.0000     0.0000 </r>
       <r>   -17.5389     0.0000     0.0000 </r>
       <r>   -17.4335     0.0000     0.0000 </r>
       <r>   -17.3282     0.0000     0.0000 </r>
       <r>   -17.2228     0.0000     0.0000 </r>
       <r>   -17.1175     0.0000     0.0000 </r>
       <r>   -17.0121     0.0000     0.0000 </r>
       <r>   -16.9067     0.0000     0.0000 </r>
       <r>   -16.8014     0.0000     0.0000 </r>
       <r>   -16.6960     0.0000     0.0000 </r>
       <r>   -16.5906     0.0000     0.0000 </r>
       <r>   -16.4853     0.0000     0.0000 </r>
       <r>   -16.3799     0.0000     0.0000 </r>
       <r>   -16.2746     1.0696     0.1127 </r>
       <r>   -16.1692   114.8716    12.2158 </r>
       <r>   -16.0638   158.6909    28.9357 </r>
       <r>   -15.9585   669.1434    99.4377 </r>
       <r>   -15.8531   567.5766   159.2385 </r>
       <r>   -15.7478     7.2276   160.0000 </r>
       <r>   -15.6424     0.0001   160.0000 </r>
       <r>   -15.5370     0.0000   160.0000 </r>
       <r>   -15.4317     0.0000   160.0000 </r>
       <r>   -15.3263     0.0000   160.0000 </r>
       <r>   -15.2209     0.0000   160.0000 </r>
       <r>   -15.1156     0.0000   160.0000 </r>
       <r>   -15.0102     0.0000   160.0000 </r>
       <r>   -14.9049     0.0000   160.0000 </r>
       <r>   -14.7995     0.0000   160.0000 </r>
       <r>   -14.6941     0.0000   160.0000 </r>
       <r>   -14.5888     0.0000   160.0000 </r>
       <r>   -14.4834     0.0000   160.0000 </r>
       <r>   -14.3781     0.0000   160.0000 </r>
       <r>   -14.2727     0.0000   160.0000 </r>
       <r>   -14.1673     0.0000   160.0000 </r>
       <r>   -14.0620     0.0000   160.0000 </r>
       <r>   -13.9566     0.0000   160.0000 </r>
       <r>   -13.8512     0.0000   160.0000 </r>
       <r>   -13.7459     0.0000   160.0000 </r>
       <r>   -13.6405     0.0000   160.0000 </r>
       <r>   -13.5352     0.0000   160.0000 </r>
       <r>   -13.4298     0.0000   160.0000 </r>
       <r>   -13.3244     0.0000   160.0000 </r>
       <r>   -13.2191     0.0000   160.0000 </r>
       <r>   -13.1137     0.0000   160.0000 </r>
       <r>   -13.0083     0.0000   160.0000 </r>
       <r>   -12.9030     0.0000   160.0000 </r>
       <r>   -12.7976     0.0121   160.0013 </r>
       <r>   -12.6923     1.5303   160.1625 </r>
       <r>   -12.5869     6.3319   160.8296 </r>
       <r>   -12.4815     9.3052   161.8101 </r>
       <r>   -12.3762     4.2245   162.2551 </r>
       <r>   -12.2708     6.0023   162.8876 </r>
       <r>   -12.1655    16.9608   164.6746 </r>
       <r>   -12.0601     5.4559   165.2494 </r>
       <r>   -11.9547     1.9117   165.4508 </r>
       <r>   -11.8494     9.5871   166.4609 </r>
       <r>   -11.7440    17.7674   168.3330 </r>
       <r>   -11.6386     8.7709   169.2571 </r>
       <r>   -11.5333    11.1898   170.4360 </r>
       <r>   -11.4279     7.7073   171.2481 </r>
       <r>   -11.3226     3.6059   171.6280 </r>
       <r>   -11.2172    30.6817   174.8607 </r>
       <r>   -11.1118    17.1190   176.6644 </r>
       <r>   -11.0065    14.6728   178.2103 </r>
       <r>   -10.9011    14.6195   179.7506 </r>
       <r>   -10.7958    31.1939   183.0373 </r>
       <r>   -10.6904    25.6335   185.7381 </r>
       <r>   -10.5850     2.6961   186.0221 </r>
       <r>   -10.4797    13.0557   187.3977 </r>
       <r>   -10.3743    21.6880   189.6828 </r>
       <r>   -10.2689     6.1424   190.3300 </r>
       <r>   -10.1636    13.3893   191.7407 </r>
       <r>   -10.0582     2.4428   191.9981 </r>
       <r>    -9.9529     0.0183   192.0000 </r>
       <r>    -9.8475     0.0000   192.0000 </r>
       <r>    -9.7421     0.0000   192.0000 </r>
       <r>    -9.6368     0.0000   192.0000 </r>
       <r>    -9.5314     0.0000   192.0000 </r>
       <r>    -9.4261     0.0000   192.0000 </r>
       <r>    -9.3207     0.0000   192.0000 </r>
       <r>    -9.2153     0.0000   192.0000 </r>
       <r>    -9.1100     0.0000   192.0000 </r>
       <r>    -9.0046     0.0000   192.0000 </r>
       <r>    -8.8992     0.0000   192.0000 </r>
       <r>    -8.7939     0.0000   192.0000 </r>
       <r>    -8.6885     0.0000   192.0000 </r>
       <r>    -8.5832     0.0000   192.0000 </r>
       <r>    -8.4778     0.0000   192.0000 </r>
       <r>    -8.3724     0.0000   192.0000 </r>
       <r>    -8.2671     0.0000   192.0000 </r>
       <r>    -8.1617     0.0000   192.0000 </r>
       <r>    -8.0564     0.0000   192.0000 </r>
       <r>    -7.9510     0.0000   192.0000 </r>
       <r>    -7.8456     0.0000   192.0000 </r>
       <r>    -7.7403     0.0000   192.0000 </r>
       <r>    -7.6349     0.0000   192.0000 </r>
       <r>    -7.5295     0.0000   192.0000 </r>
       <r>    -7.4242     0.0000   192.0000 </r>
       <r>    -7.3188     0.0000   192.0000 </r>
       <r>    -7.2135     0.0000   192.0000 </r>
       <r>    -7.1081     0.0000   192.0000 </r>
       <r>    -7.0027     0.0000   192.0000 </r>
       <r>    -6.8974     0.0000   192.0000 </r>
       <r>    -6.7920     0.0000   192.0000 </r>
       <r>    -6.6867     0.0000   192.0000 </r>
       <r>    -6.5813     0.0000   192.0000 </r>
       <r>    -6.4759     0.0000   192.0000 </r>
       <r>    -6.3706     0.0000   192.0000 </r>
       <r>    -6.2652     0.0031   192.0003 </r>
       <r>    -6.1598     0.2859   192.0304 </r>
       <r>    -6.0545     1.5045   192.1890 </r>
       <r>    -5.9491     3.3265   192.5394 </r>
       <r>    -5.8438     3.8305   192.9430 </r>
       <r>    -5.7384     2.8696   193.2454 </r>
       <r>    -5.6330     5.8536   193.8621 </r>
       <r>    -5.5277    10.4639   194.9646 </r>
       <r>    -5.4223     6.5670   195.6565 </r>
       <r>    -5.3170     5.7396   196.2613 </r>
       <r>    -5.2116     8.9575   197.2050 </r>
       <r>    -5.1062     8.1081   198.0593 </r>
       <r>    -5.0009    11.1764   199.2369 </r>
       <r>    -4.8955     9.2740   200.2140 </r>
       <r>    -4.7901    11.9970   201.4780 </r>
       <r>    -4.6848    13.4046   202.8904 </r>
       <r>    -4.5794     8.8339   203.8211 </r>
       <r>    -4.4741    17.3726   205.6515 </r>
       <r>    -4.3687     7.6100   206.4533 </r>
       <r>    -4.2633     7.0948   207.2008 </r>
       <r>    -4.1580     7.2254   207.9621 </r>
       <r>    -4.0526    12.8875   209.3200 </r>
       <r>    -3.9473     9.9491   210.3682 </r>
       <r>    -3.8419    23.0786   212.7998 </r>
       <r>    -3.7365    30.8318   216.0483 </r>
       <r>    -3.6312    41.8238   220.4549 </r>
       <r>    -3.5258    22.2803   222.8024 </r>
       <r>    -3.4204    13.2174   224.1950 </r>
       <r>    -3.3151    14.7270   225.7467 </r>
       <r>    -3.2097     8.9171   226.6862 </r>
       <r>    -3.1044    17.9215   228.5744 </r>
       <r>    -2.9990    13.5906   230.0064 </r>
       <r>    -2.8936    13.5062   231.4294 </r>
       <r>    -2.7883     6.7257   232.1380 </r>
       <r>    -2.6829     3.4264   232.4991 </r>
       <r>    -2.5776     8.0148   233.3435 </r>
       <r>    -2.4722     8.8882   234.2800 </r>
       <r>    -2.3668     4.3327   234.7365 </r>
       <r>    -2.2615     0.1289   234.7501 </r>
       <r>    -2.1561     2.0603   234.9671 </r>
       <r>    -2.0507    14.9811   236.5456 </r>
       <r>    -1.9454     8.8042   237.4732 </r>
       <r>    -1.8400     2.6495   237.7524 </r>
       <r>    -1.7347     1.3498   237.8946 </r>
       <r>    -1.6293     4.0776   238.3242 </r>
       <r>    -1.5239     2.2947   238.5660 </r>
       <r>    -1.4186     5.9272   239.1905 </r>
       <r>    -1.3132     1.4163   239.3397 </r>
       <r>    -1.2079     3.1719   239.6739 </r>
       <r>    -1.1025     1.7835   239.8618 </r>
       <r>    -0.9971     0.2162   239.8846 </r>
       <r>    -0.8918     0.6800   239.9562 </r>
       <r>    -0.7864     0.3539   239.9935 </r>
       <r>    -0.6810     0.0617   240.0000 </r>
       <r>    -0.5757     0.0000   240.0000 </r>
       <r>    -0.4703     0.0000   240.0000 </r>
       <r>    -0.3650     0.0000   240.0000 </r>
       <r>    -0.2596     0.0000   240.0000 </r>
       <r>    -0.1542     0.0000   240.0000 </r>
       <r>    -0.0489     0.0000   240.0000 </r>
       <r>     0.0565     0.0000   240.0000 </r>
       <r>     0.1619     0.0000   240.0000 </r>
       <r>     0.2672     0.0000   240.0000 </r>
       <r>     0.3726     0.0000   240.0000 </r>
       <r>     0.4779     0.0000   240.0000 </r>
       <r>     0.5833     0.0000   240.0000 </r>
       <r>     0.6887     0.0004   240.0000 </r>
       <r>     0.7940     0.4398   240.0464 </r>
       <r>     0.8994     2.8516   240.3468 </r>
       <r>     1.0047    12.2520   241.6377 </r>
       <r>     1.1101    32.5273   245.0648 </r>
       <r>     1.2155    25.8801   247.7916 </r>
       <r>     1.3208    20.2763   249.9279 </r>
       <r>     1.4262    28.9851   252.9819 </r>
       <r>     1.5316    20.9775   255.1921 </r>
       <r>     1.6369    21.3862   257.4454 </r>
       <r>     1.7423    24.7577   260.0539 </r>
       <r>     1.8476    25.6757   262.7591 </r>
       <r>     1.9530    11.9396   264.0171 </r>
       <r>     2.0584    11.4555   265.2240 </r>
       <r>     2.1637    20.3408   267.3672 </r>
       <r>     2.2691    24.8900   269.9896 </r>
       <r>     2.3744    23.3230   272.4470 </r>
       <r>     2.4798    21.4046   274.7022 </r>
       <r>     2.5852    17.9625   276.5948 </r>
       <r>     2.6905    30.4410   279.8021 </r>
       <r>     2.7959    32.0200   283.1757 </r>
       <r>     2.9013    27.9492   286.1205 </r>
       <r>     3.0066    23.2617   288.5714 </r>
       <r>     3.1120    16.1737   290.2755 </r>
       <r>     3.2173    16.5901   292.0235 </r>
       <r>     3.3227    25.1785   294.6763 </r>
       <r>     3.4281    42.6509   299.1701 </r>
       <r>     3.5334    29.3162   302.2589 </r>
       <r>     3.6388    14.9388   303.8328 </r>
       <r>     3.7441    25.6012   306.5302 </r>
       <r>     3.8495    14.8054   308.0902 </r>
       <r>     3.9549    24.5019   310.6717 </r>
       <r>     4.0602    18.1362   312.5826 </r>
       <r>     4.1656    20.6034   314.7534 </r>
       <r>     4.2710    25.0377   317.3914 </r>
       <r>     4.3763    39.0806   321.5090 </r>
       <r>     4.4817    26.7375   324.3261 </r>
       <r>     4.5870    24.7727   326.9362 </r>
       <r>     4.6924    29.0539   329.9974 </r>
       <r>     4.7978    33.8518   333.5640 </r>
       <r>     4.9031    24.0447   336.0974 </r>
       <r>     5.0085    31.4085   339.4067 </r>
       <r>     5.1138    29.3947   342.5037 </r>
       <r>     5.2192    20.0090   344.6119 </r>
       <r>     5.3246    18.0098   346.5095 </r>
       <r>     5.4299     6.0011   347.1418 </r>
       <r>     5.5353    20.5103   349.3027 </r>
       <r>     5.6407    44.0877   353.9479 </r>
       <r>     5.7460    34.5443   357.5875 </r>
       <r>     5.8514    45.5149   362.3831 </r>
       <r>     5.9567    42.0932   366.8181 </r>
       <r>     6.0621    27.3070   369.6952 </r>
       <r>     6.1675    25.5464   372.3868 </r>
       <r>     6.2728    23.5758   374.8708 </r>
       <r>     6.3782    10.5081   375.9779 </r>
       <r>     6.4835    23.5394   378.4581 </r>
       <r>     6.5889    28.6893   381.4808 </r>
       <r>     6.6943    20.0276   383.5910 </r>
       <r>     6.7996     3.4835   383.9580 </r>
       <r>     6.9050     0.3987   384.0000 </r>
       <r>     7.0104     0.0001   384.0000 </r>
       <r>     7.1157     0.0000   384.0000 </r>
       <r>     7.2211     0.0001   384.0000 </r>
       <r>     7.3264     0.1098   384.0116 </r>
       <r>     7.4318     0.2823   384.0413 </r>
       <r>     7.5372     0.0163   384.0430 </r>
       <r>     7.6425     0.6363   384.1101 </r>
       <r>     7.7479     0.7915   384.1935 </r>
       <r>     7.8532     0.1411   384.2083 </r>
       <r>     7.9586     0.0955   384.2184 </r>
       <r>     8.0640     0.7789   384.3005 </r>
       <r>     8.1693     1.7197   384.4817 </r>
       <r>     8.2747     3.5771   384.8585 </r>
       <r>     8.3801     5.6048   385.4491 </r>
       <r>     8.4854     2.1693   385.6776 </r>
       <r>     8.5908     4.1215   386.1119 </r>
       <r>     8.6961    11.5248   387.3262 </r>
       <r>     8.8015     6.2325   387.9828 </r>
       <r>     8.9069    11.4520   389.1894 </r>
       <r>     9.0122     4.5988   389.6740 </r>
       <r>     9.1176     9.8373   390.7104 </r>
       <r>     9.2229     9.5401   391.7156 </r>
       <r>     9.3283    10.3157   392.8025 </r>
       <r>     9.4337    31.3592   396.1065 </r>
       <r>     9.5390    23.3187   398.5634 </r>
       <r>     9.6444    20.1827   400.6899 </r>
       <r>     9.7498    16.8739   402.4678 </r>
       <r>     9.8551    25.7011   405.1757 </r>
       <r>     9.9605    22.5823   407.5550 </r>
       <r>    10.0658    20.9623   409.7636 </r>
       <r>    10.1712    19.7461   411.8441 </r>
       <r>    10.2766    28.9533   414.8947 </r>
       <r>    10.3819    30.7280   418.1322 </r>
       <r>    10.4873    23.5738   420.6160 </r>
       <r>    10.5926    20.8341   422.8111 </r>
       <r>    10.6980    24.0743   425.3476 </r>
       <r>    10.8034    20.7905   427.5381 </r>
       <r>    10.9087    32.6891   430.9823 </r>
       <r>    11.0141    20.0692   433.0968 </r>
       <r>    11.1195    21.9168   435.4060 </r>
       <r>    11.2248    17.0704   437.2046 </r>
       <r>    11.3302    15.5291   438.8408 </r>
       <r>    11.4355    15.9719   440.5236 </r>
       <r>    11.5409    15.8291   442.1914 </r>
       <r>    11.6463    20.0440   444.3032 </r>
       <r>    11.7516    30.6999   447.5378 </r>
       <r>    11.8570    34.0046   451.1206 </r>
       <r>    11.9623    27.9203   454.0623 </r>
       <r>    12.0677    28.9357   457.1110 </r>
       <r>    12.1731    32.2487   460.5088 </r>
       <r>    12.2784    22.8481   462.9161 </r>
       <r>    12.3838     6.2892   463.5788 </r>
       <r>    12.4892     2.5443   463.8469 </r>
       <r>    12.5945     1.4152   463.9960 </r>
       <r>    12.6999     0.0383   464.0000 </r>
       <r>    12.8052     0.0000   464.0000 </r>
       <r>    12.9106     0.0000   464.0000 </r>
       <r>    13.0160     0.0000   464.0000 </r>
       <r>    13.1213     0.0000   464.0000 </r>
       <r>    13.2267     0.0000   464.0000 </r>
       <r>    13.3320     0.0000   464.0000 </r>
       <r>    13.4374     0.0000   464.0000 </r>
       <r>    13.5428     0.0000   464.0000 </r>
       <r>    13.6481     0.0000   464.0000 </r>
       <r>    13.7535     0.0000   464.0000 </r>
       <r>    13.8589     0.0000   464.0000 </r>
       <r>    13.9642     0.0000   464.0000 </r>
      </set>
     </set>
    </array>
   </total>
  </dos>
 </calculation>
 <structure name="finalpos" >
  <crystal>
   <varray name="basis" >
    <v>       7.72255666       0.00000000       0.00000000 </v>
    <v>       0.00000000       7.72255666       0.00000000 </v>
    <v>       0.00000000       0.00000000      12.18711128 </v>
   </varray>
   <i name="volume">    726.81349724 </i>
   <varray name="rec_basis" >
    <v>       0.12949079       0.00000000       0.00000000 </v>
    <v>       0.00000000       0.12949079       0.00000000 </v>
    <v>       0.00000000       0.00000000       0.08205390 </v>
   </varray>
  </crystal>
  <varray name="positions" >
   <v>       0.24880490       0.24880490       0.85639670 </v>
   <v>       0.75119510       0.24880490       0.85639670 </v>
   <v>       0.24880490       0.75119510       0.85639670 </v>
   <v>       0.75119510       0.75119510       0.85639670 </v>
   <v>       0.00000000       0.00000000       0.64453740 </v>
   <v>       0.50000000       0.00000000       0.64538247 </v>
   <v>       0.00000000       0.50000000       0.64538247 </v>
   <v>       0.50000000       0.50000000       0.64631664 </v>
   <v>       0.00000000       0.00000000       0.35546260 </v>
   <v>       0.50000000       0.00000000       0.35461753 </v>
   <v>       0.00000000       0.50000000       0.35461753 </v>
   <v>       0.50000000       0.50000000       0.35368336 </v>
   <v>       0.24880490       0.24880490       0.14360330 </v>
   <v>       0.75119510       0.24880490       0.14360330 </v>
   <v>       0.24880490       0.75119510       0.14360330 </v>
   <v>       0.75119510       0.75119510       0.14360330 </v>
   <v>       0.50000000       0.00000000       1.00000000 </v>
   <v>       0.00000000       0.50000000       1.00000000 </v>
   <v>       0.50000000       0.50000000       1.00000000 </v>
   <v>       0.25033583       0.25033583       0.50000000 </v>
   <v>       0.74966417       0.25033583       0.50000000 </v>
   <v>       0.25033583       0.74966417       0.50000000 </v>
   <v>       0.74966417       0.74966417       0.50000000 </v>
   <v>       0.00000000       0.24945599       0.75035777 </v>
   <v>       0.50000000       0.24958983       0.75149004 </v>
   <v>       0.00000000       0.75054401       0.75035777 </v>
   <v>       0.50000000       0.75041017       0.75149004 </v>
   <v>       0.24945599       0.00000000       0.75035777 </v>
   <v>       0.75054401       0.00000000       0.75035777 </v>
   <v>       0.24958983       0.50000000       0.75149004 </v>
   <v>       0.75041017       0.50000000       0.75149004 </v>
   <v>       0.24945599       0.00000000       0.24964223 </v>
   <v>       0.75054401       0.00000000       0.24964223 </v>
   <v>       0.24958983       0.50000000       0.24850996 </v>
   <v>       0.75041017       0.50000000       0.24850996 </v>
   <v>       0.00000000       0.24945599       0.24964223 </v>
   <v>       0.50000000       0.24958983       0.24850996 </v>
   <v>       0.00000000       0.75054401       0.24964223 </v>
   <v>       0.50000000       0.75041017       0.24850996 </v>
   <v>       0.00000000       0.00000000       1.00000000 </v>
  </varray>
 </structure>
</modeling>
