unknown system                          
           1
     7.722557    0.000000    0.000000
     0.000000    7.722557    0.000000
     0.000000    0.000000   12.187111
   Bi   Se   O    S 
    16     7    16     1
Direct configuration=     1
   0.24880489  0.24880489  0.85639666
   0.75119511  0.24880489  0.85639666
   0.24880489  0.75119511  0.85639666
   0.75119511  0.75119511  0.85639666
   0.00000000  0.00000000  0.64453736
   0.50000000  0.00000000  0.64538244
   0.00000000  0.50000000  0.64538244
   0.50000000  0.50000000  0.64631664
   0.00000000  0.00000000  0.35546264
   0.50000000  0.00000000  0.35461756
   0.00000000  0.50000000  0.35461756
   0.50000000  0.50000000  0.35368336
   0.24880489  0.24880489  0.14360334
   0.75119511  0.24880489  0.14360334
   0.24880489  0.75119511  0.14360334
   0.75119511  0.75119511  0.14360334
   0.50000000  0.00000000  0.00000000
   0.00000000  0.50000000  0.00000000
   0.50000000  0.50000000  0.00000000
   0.25033580  0.25033580  0.50000000
   0.74966420  0.25033580  0.50000000
   0.25033580  0.74966420  0.50000000
   0.74966420  0.74966420  0.50000000
   0.00000000  0.24945602  0.75035776
   0.50000000  0.24958985  0.75149007
   0.00000000  0.75054398  0.75035776
   0.50000000  0.75041015  0.75149007
   0.24945602  0.00000000  0.75035776
   0.75054398  0.00000000  0.75035776
   0.24958985  0.50000000  0.75149007
   0.75041015  0.50000000  0.75149007
   0.24945602  0.00000000  0.24964224
   0.75054398  0.00000000  0.24964224
   0.24958985  0.50000000  0.24850993
   0.75041015  0.50000000  0.24850993
   0.00000000  0.24945602  0.24964224
   0.50000000  0.24958985  0.24850993
   0.00000000  0.75054398  0.24964224
   0.50000000  0.75041015  0.24850993
   0.00000000  0.00000000  0.00000000
Direct configuration=     2
   0.24880490  0.24880490  0.85639671
   0.75119510  0.24880490  0.85639671
   0.24880490  0.75119510  0.85639671
   0.75119510  0.75119510  0.85639671
   0.00000000  0.00000000  0.64453741
   0.50000000  0.00000000  0.64538247
   0.00000000  0.50000000  0.64538247
   0.50000000  0.50000000  0.64631664
   0.00000000  0.00000000  0.35546259
   0.50000000  0.00000000  0.35461753
   0.00000000  0.50000000  0.35461753
   0.50000000  0.50000000  0.35368336
   0.24880490  0.24880490  0.14360329
   0.75119510  0.24880490  0.14360329
   0.24880490  0.75119510  0.14360329
   0.75119510  0.75119510  0.14360329
   0.50000000  0.00000000  1.00000000
   0.00000000  0.50000000  1.00000000
   0.50000000  0.50000000  1.00000000
   0.25033583  0.25033583  0.50000000
   0.74966417  0.25033583  0.50000000
   0.25033583  0.74966417  0.50000000
   0.74966417  0.74966417  0.50000000
   0.00000000  0.24945598  0.75035777
   0.50000000  0.24958982  0.75149003
   0.00000000  0.75054402  0.75035777
   0.50000000  0.75041018  0.75149003
   0.24945598  0.00000000  0.75035777
   0.75054402  0.00000000  0.75035777
   0.24958982  0.50000000  0.75149003
   0.75041018  0.50000000  0.75149003
   0.24945598  0.00000000  0.24964223
   0.75054402  0.00000000  0.24964223
   0.24958982  0.50000000  0.24850997
   0.75041018  0.50000000  0.24850997
   0.00000000  0.24945598  0.24964223
   0.50000000  0.24958982  0.24850997
   0.00000000  0.75054402  0.24964223
   0.50000000  0.75041018  0.24850997
   0.00000000  0.00000000  1.00000000
Direct configuration=     3
   0.24880490  0.24880490  0.85639669
   0.75119510  0.24880490  0.85639669
   0.24880490  0.75119510  0.85639669
   0.75119510  0.75119510  0.85639669
   0.00000000  0.00000000  0.64453739
   0.50000000  0.00000000  0.64538246
   0.00000000  0.50000000  0.64538246
   0.50000000  0.50000000  0.64631664
   0.00000000  0.00000000  0.35546261
   0.50000000  0.00000000  0.35461754
   0.00000000  0.50000000  0.35461754
   0.50000000  0.50000000  0.35368336
   0.24880490  0.24880490  0.14360331
   0.75119510  0.24880490  0.14360331
   0.24880490  0.75119510  0.14360331
   0.75119510  0.75119510  0.14360331
   0.50000000  0.00000000  0.00000000
   0.00000000  0.50000000  0.00000000
   0.50000000  0.50000000  0.00000000
   0.25033582  0.25033582  0.50000000
   0.74966418  0.25033582  0.50000000
   0.25033582  0.74966418  0.50000000
   0.74966418  0.74966418  0.50000000
   0.00000000  0.24945600  0.75035777
   0.50000000  0.24958984  0.75149005
   0.00000000  0.75054400  0.75035777
   0.50000000  0.75041016  0.75149005
   0.24945600  0.00000000  0.75035777
   0.75054400  0.00000000  0.75035777
   0.24958984  0.50000000  0.75149005
   0.75041016  0.50000000  0.75149005
   0.24945600  0.00000000  0.24964223
   0.75054400  0.00000000  0.24964223
   0.24958984  0.50000000  0.24850995
   0.75041016  0.50000000  0.24850995
   0.00000000  0.24945600  0.24964223
   0.50000000  0.24958984  0.24850995
   0.00000000  0.75054400  0.24964223
   0.50000000  0.75041016  0.24850995
   0.00000000  0.00000000  0.00000000
Direct configuration=     4
   0.24880490  0.24880490  0.85639670
   0.75119510  0.24880490  0.85639670
   0.24880490  0.75119510  0.85639670
   0.75119510  0.75119510  0.85639670
   0.00000000  0.00000000  0.64453740
   0.50000000  0.00000000  0.64538247
   0.00000000  0.50000000  0.64538247
   0.50000000  0.50000000  0.64631664
   0.00000000  0.00000000  0.35546260
   0.50000000  0.00000000  0.35461753
   0.00000000  0.50000000  0.35461753
   0.50000000  0.50000000  0.35368336
   0.24880490  0.24880490  0.14360330
   0.75119510  0.24880490  0.14360330
   0.24880490  0.75119510  0.14360330
   0.75119510  0.75119510  0.14360330
   0.50000000  0.00000000  1.00000000
   0.00000000  0.50000000  1.00000000
   0.50000000  0.50000000  1.00000000
   0.25033583  0.25033583  0.50000000
   0.74966417  0.25033583  0.50000000
   0.25033583  0.74966417  0.50000000
   0.74966417  0.74966417  0.50000000
   0.00000000  0.24945599  0.75035777
   0.50000000  0.24958983  0.75149004
   0.00000000  0.75054401  0.75035777
   0.50000000  0.75041017  0.75149004
   0.24945599  0.00000000  0.75035777
   0.75054401  0.00000000  0.75035777
   0.24958983  0.50000000  0.75149004
   0.75041017  0.50000000  0.75149004
   0.24945599  0.00000000  0.24964223
   0.75054401  0.00000000  0.24964223
   0.24958983  0.50000000  0.24850996
   0.75041017  0.50000000  0.24850996
   0.00000000  0.24945599  0.24964223
   0.50000000  0.24958983  0.24850996
   0.00000000  0.75054401  0.24964223
   0.50000000  0.75041017  0.24850996
   0.00000000  0.00000000  1.00000000
Direct configuration=     5
   0.24880490  0.24880490  0.85639670
   0.75119510  0.24880490  0.85639670
   0.24880490  0.75119510  0.85639670
   0.75119510  0.75119510  0.85639670
   0.00000000  0.00000000  0.64453740
   0.50000000  0.00000000  0.64538247
   0.00000000  0.50000000  0.64538247
   0.50000000  0.50000000  0.64631664
   0.00000000  0.00000000  0.35546260
   0.50000000  0.00000000  0.35461753
   0.00000000  0.50000000  0.35461753
   0.50000000  0.50000000  0.35368336
   0.24880490  0.24880490  0.14360330
   0.75119510  0.24880490  0.14360330
   0.24880490  0.75119510  0.14360330
   0.75119510  0.75119510  0.14360330
   0.50000000  0.00000000  0.00000000
   0.00000000  0.50000000  0.00000000
   0.50000000  0.50000000  0.00000000
   0.25033582  0.25033582  0.50000000
   0.74966418  0.25033582  0.50000000
   0.25033582  0.74966418  0.50000000
   0.74966418  0.74966418  0.50000000
   0.00000000  0.24945599  0.75035777
   0.50000000  0.24958983  0.75149004
   0.00000000  0.75054401  0.75035777
   0.50000000  0.75041017  0.75149004
   0.24945599  0.00000000  0.75035777
   0.75054401  0.00000000  0.75035777
   0.24958983  0.50000000  0.75149004
   0.75041017  0.50000000  0.75149004
   0.24945599  0.00000000  0.24964223
   0.75054401  0.00000000  0.24964223
   0.24958983  0.50000000  0.24850996
   0.75041017  0.50000000  0.24850996
   0.00000000  0.24945599  0.24964223
   0.50000000  0.24958983  0.24850996
   0.00000000  0.75054401  0.24964223
   0.50000000  0.75041017  0.24850996
   0.00000000  0.00000000  0.00000000
Direct configuration=     6
   0.24880490  0.24880490  0.85639670
   0.75119510  0.24880490  0.85639670
   0.24880490  0.75119510  0.85639670
   0.75119510  0.75119510  0.85639670
   0.00000000  0.00000000  0.64453740
   0.50000000  0.00000000  0.64538247
   0.00000000  0.50000000  0.64538247
   0.50000000  0.50000000  0.64631664
   0.00000000  0.00000000  0.35546260
   0.50000000  0.00000000  0.35461753
   0.00000000  0.50000000  0.35461753
   0.50000000  0.50000000  0.35368336
   0.24880490  0.24880490  0.14360330
   0.75119510  0.24880490  0.14360330
   0.24880490  0.75119510  0.14360330
   0.75119510  0.75119510  0.14360330
   0.50000000  0.00000000  1.00000000
   0.00000000  0.50000000  1.00000000
   0.50000000  0.50000000  1.00000000
   0.25033583  0.25033583  0.50000000
   0.74966417  0.25033583  0.50000000
   0.25033583  0.74966417  0.50000000
   0.74966417  0.74966417  0.50000000
   0.00000000  0.24945599  0.75035777
   0.50000000  0.24958983  0.75149004
   0.00000000  0.75054401  0.75035777
   0.50000000  0.75041017  0.75149004
   0.24945599  0.00000000  0.75035777
   0.75054401  0.00000000  0.75035777
   0.24958983  0.50000000  0.75149004
   0.75041017  0.50000000  0.75149004
   0.24945599  0.00000000  0.24964223
   0.75054401  0.00000000  0.24964223
   0.24958983  0.50000000  0.24850996
   0.75041017  0.50000000  0.24850996
   0.00000000  0.24945599  0.24964223
   0.50000000  0.24958983  0.24850996
   0.00000000  0.75054401  0.24964223
   0.50000000  0.75041017  0.24850996
   0.00000000  0.00000000  1.00000000
