  40  40   0   0
  0.1901134E+02  0.7839995E-09  0.7839995E-09  0.1237203E-08  0.5000000E-15
  1.000000000000000E-004
  CAR 
 unknown system                          
     13.05802233    -18.18450875  301      6.53604226      1.00000000
    -18.185  0.0000E+00  0.0000E+00
    -18.080  0.0000E+00  0.0000E+00
    -17.976  0.0000E+00  0.0000E+00
    -17.872  0.0000E+00  0.0000E+00
    -17.768  0.0000E+00  0.0000E+00
    -17.664  0.0000E+00  0.0000E+00
    -17.560  0.0000E+00  0.0000E+00
    -17.456  0.0000E+00  0.0000E+00
    -17.351  0.0000E+00  0.0000E+00
    -17.247  0.0000E+00  0.0000E+00
    -17.143  0.0000E+00  0.0000E+00
    -17.039  0.3791E-15  0.3948E-16
    -16.935  0.1306E-06  0.1360E-07
    -16.831  0.1418E-01  0.1477E-02
    -16.727  0.1255E+01  0.1321E+00
    -16.622  0.2192E+01  0.3604E+00
    -16.518  0.9195E+01  0.1318E+01
    -16.414  0.2704E+01  0.1600E+01
    -16.310  0.4392E-02  0.1600E+01
    -16.206  0.3536E-08  0.1600E+01
    -16.102  0.0000E+00  0.1600E+01
    -15.998  0.0000E+00  0.1600E+01
    -15.893  0.0000E+00  0.1600E+01
    -15.789  0.0000E+00  0.1600E+01
    -15.685  0.0000E+00  0.1600E+01
    -15.581  0.0000E+00  0.1600E+01
    -15.477  0.0000E+00  0.1600E+01
    -15.373  0.0000E+00  0.1600E+01
    -15.269  0.0000E+00  0.1600E+01
    -15.164  0.0000E+00  0.1600E+01
    -15.060  0.0000E+00  0.1600E+01
    -14.956  0.0000E+00  0.1600E+01
    -14.852  0.0000E+00  0.1600E+01
    -14.748  0.0000E+00  0.1600E+01
    -14.644  0.0000E+00  0.1600E+01
    -14.540  0.0000E+00  0.1600E+01
    -14.435  0.0000E+00  0.1600E+01
    -14.331  0.0000E+00  0.1600E+01
    -14.227  0.0000E+00  0.1600E+01
    -14.123  0.0000E+00  0.1600E+01
    -14.019  0.0000E+00  0.1600E+01
    -13.915  0.0000E+00  0.1600E+01
    -13.811  0.0000E+00  0.1600E+01
    -13.706  0.0000E+00  0.1600E+01
    -13.602  0.0000E+00  0.1600E+01
    -13.498  0.0000E+00  0.1600E+01
    -13.394  0.0000E+00  0.1600E+01
    -13.290  0.5680E-14  0.1600E+01
    -13.186  0.1915E-06  0.1600E+01
    -13.082  0.1928E-02  0.1600E+01
    -12.977  0.2920E-01  0.1603E+01
    -12.873  0.9504E-01  0.1613E+01
    -12.769  0.8602E-01  0.1622E+01
    -12.665  0.3024E-01  0.1625E+01
    -12.561  0.1530E+00  0.1641E+01
    -12.457  0.1080E+00  0.1652E+01
    -12.353  0.1428E-01  0.1654E+01
    -12.248  0.9916E-01  0.1664E+01
    -12.144  0.1887E+00  0.1684E+01
    -12.040  0.8579E-01  0.1693E+01
    -11.936  0.1439E+00  0.1708E+01
    -11.832  0.4551E-01  0.1713E+01
    -11.728  0.1217E+00  0.1725E+01
    -11.624  0.2864E+00  0.1755E+01
    -11.519  0.1771E+00  0.1773E+01
    -11.415  0.1985E+00  0.1794E+01
    -11.311  0.1593E+00  0.1811E+01
    -11.207  0.4326E+00  0.1856E+01
    -11.103  0.2845E-01  0.1859E+01
    -10.999  0.1156E+00  0.1871E+01
    -10.895  0.2409E+00  0.1896E+01
    -10.790  0.6828E-01  0.1903E+01
    -10.686  0.1394E+00  0.1918E+01
    -10.582  0.2380E-01  0.1920E+01
    -10.478  0.1406E-03  0.1920E+01
    -10.374  0.5468E-09  0.1920E+01
    -10.270  0.0000E+00  0.1920E+01
    -10.166  0.0000E+00  0.1920E+01
    -10.061  0.0000E+00  0.1920E+01
     -9.957  0.0000E+00  0.1920E+01
     -9.853  0.0000E+00  0.1920E+01
     -9.749  0.0000E+00  0.1920E+01
     -9.645  0.0000E+00  0.1920E+01
     -9.541  0.0000E+00  0.1920E+01
     -9.437  0.0000E+00  0.1920E+01
     -9.332  0.0000E+00  0.1920E+01
     -9.228  0.0000E+00  0.1920E+01
     -9.124  0.0000E+00  0.1920E+01
     -9.020  0.0000E+00  0.1920E+01
     -8.916  0.0000E+00  0.1920E+01
     -8.812  0.0000E+00  0.1920E+01
     -8.708  0.0000E+00  0.1920E+01
     -8.603  0.0000E+00  0.1920E+01
     -8.499  0.0000E+00  0.1920E+01
     -8.395  0.0000E+00  0.1920E+01
     -8.291  0.0000E+00  0.1920E+01
     -8.187  0.0000E+00  0.1920E+01
     -8.083  0.0000E+00  0.1920E+01
     -7.979  0.0000E+00  0.1920E+01
     -7.874  0.0000E+00  0.1920E+01
     -7.770  0.0000E+00  0.1920E+01
     -7.666  0.0000E+00  0.1920E+01
     -7.562  0.0000E+00  0.1920E+01
     -7.458  0.0000E+00  0.1920E+01
     -7.354  0.0000E+00  0.1920E+01
     -7.250  0.0000E+00  0.1920E+01
     -7.145  0.0000E+00  0.1920E+01
     -7.041  0.0000E+00  0.1920E+01
     -6.937  0.0000E+00  0.1920E+01
     -6.833  0.0000E+00  0.1920E+01
     -6.729  0.0000E+00  0.1920E+01
     -6.625  0.1093E-13  0.1920E+01
     -6.521  0.1580E-06  0.1920E+01
     -6.416  0.6335E-03  0.1920E+01
     -6.312  0.6569E-02  0.1921E+01
     -6.208  0.2685E-01  0.1924E+01
     -6.104  0.4609E-01  0.1928E+01
     -6.000  0.3434E-01  0.1932E+01
     -5.896  0.5334E-01  0.1937E+01
     -5.792  0.1127E+00  0.1949E+01
     -5.687  0.7280E-01  0.1957E+01
     -5.583  0.7094E-01  0.1964E+01
     -5.479  0.9333E-01  0.1974E+01
     -5.375  0.1078E+00  0.1985E+01
     -5.271  0.1144E+00  0.1997E+01
     -5.167  0.1125E+00  0.2009E+01
     -5.063  0.1582E+00  0.2025E+01
     -4.959  0.1067E+00  0.2036E+01
     -4.854  0.1798E+00  0.2055E+01
     -4.750  0.1003E+00  0.2066E+01
     -4.646  0.7027E-01  0.2073E+01
     -4.542  0.1272E+00  0.2086E+01
     -4.438  0.1385E+00  0.2101E+01
     -4.334  0.2126E+00  0.2123E+01
     -4.230  0.3128E+00  0.2155E+01
     -4.125  0.4206E+00  0.2199E+01
     -4.021  0.2828E+00  0.2228E+01
     -3.917  0.1909E+00  0.2248E+01
     -3.813  0.9306E-01  0.2258E+01
     -3.709  0.1373E+00  0.2272E+01
     -3.605  0.1766E+00  0.2291E+01
     -3.501  0.1528E+00  0.2307E+01
     -3.396  0.9730E-01  0.2317E+01
     -3.292  0.5757E-01  0.2323E+01
     -3.188  0.7548E-01  0.2331E+01
     -3.084  0.1044E+00  0.2342E+01
     -2.980  0.5592E-01  0.2347E+01
     -2.876  0.1611E-02  0.2348E+01
     -2.772  0.4823E-02  0.2348E+01
     -2.667  0.1532E+00  0.2364E+01
     -2.563  0.8413E-01  0.2373E+01
     -2.459  0.4600E-01  0.2378E+01
     -2.355  0.1362E-01  0.2379E+01
     -2.251  0.4177E-01  0.2383E+01
     -2.147  0.3047E-01  0.2386E+01
     -2.043  0.5697E-01  0.2392E+01
     -1.938  0.1701E-01  0.2394E+01
     -1.834  0.3341E-01  0.2398E+01
     -1.730  0.1070E-01  0.2399E+01
     -1.626  0.6027E-02  0.2399E+01
     -1.522  0.4486E-02  0.2400E+01
     -1.418  0.1464E-02  0.2400E+01
     -1.314  0.2021E-05  0.2400E+01
     -1.209  0.9143E-12  0.2400E+01
     -1.105  0.0000E+00  0.2400E+01
     -1.001  0.0000E+00  0.2400E+01
     -0.897  0.0000E+00  0.2400E+01
     -0.793  0.0000E+00  0.2400E+01
     -0.689  0.0000E+00  0.2400E+01
     -0.585  0.0000E+00  0.2400E+01
     -0.480  0.0000E+00  0.2400E+01
     -0.376  0.0000E+00  0.2400E+01
     -0.272  0.0000E+00  0.2400E+01
     -0.168  0.0000E+00  0.2400E+01
     -0.064  0.0000E+00  0.2400E+01
      0.040  0.0000E+00  0.2400E+01
      0.144  0.0000E+00  0.2400E+01
      0.249  0.9130E-10  0.2400E+01
      0.353  0.3834E-04  0.2400E+01
      0.457  0.9126E-02  0.2401E+01
      0.561  0.3928E-01  0.2405E+01
      0.665  0.1730E+00  0.2423E+01
      0.769  0.3034E+00  0.2455E+01
      0.873  0.2920E+00  0.2485E+01
      0.978  0.3163E+00  0.2518E+01
      1.082  0.2494E+00  0.2544E+01
      1.186  0.1535E+00  0.2560E+01
      1.290  0.1968E+00  0.2580E+01
      1.394  0.3415E+00  0.2616E+01
      1.498  0.1621E+00  0.2633E+01
      1.602  0.1074E+00  0.2644E+01
      1.707  0.1391E+00  0.2659E+01
      1.811  0.3667E+00  0.2697E+01
      1.915  0.1065E+00  0.2708E+01
      2.019  0.1935E+00  0.2728E+01
      2.123  0.2007E+00  0.2749E+01
      2.227  0.2443E+00  0.2774E+01
      2.331  0.4034E+00  0.2816E+01
      2.436  0.2790E+00  0.2845E+01
      2.540  0.2829E+00  0.2875E+01
      2.644  0.1704E+00  0.2893E+01
      2.748  0.2381E+00  0.2917E+01
      2.852  0.2792E+00  0.2947E+01
      2.956  0.3735E+00  0.2985E+01
      3.060  0.3590E+00  0.3023E+01
      3.165  0.1424E+00  0.3038E+01
      3.269  0.2530E+00  0.3064E+01
      3.373  0.1943E+00  0.3084E+01
      3.477  0.1922E+00  0.3104E+01
      3.581  0.1712E+00  0.3122E+01
      3.685  0.2430E+00  0.3147E+01
      3.789  0.4406E+00  0.3193E+01
      3.894  0.3742E+00  0.3232E+01
      3.998  0.1506E+00  0.3248E+01
      4.102  0.2974E+00  0.3279E+01
      4.206  0.3578E+00  0.3316E+01
      4.310  0.2098E+00  0.3338E+01
      4.414  0.1840E+00  0.3357E+01
      4.518  0.3526E+00  0.3394E+01
      4.623  0.2098E+00  0.3416E+01
      4.727  0.1529E+00  0.3432E+01
      4.831  0.1593E+00  0.3448E+01
      4.935  0.1802E+00  0.3467E+01
      5.039  0.6967E-01  0.3474E+01
      5.143  0.3018E+00  0.3506E+01
      5.247  0.4782E+00  0.3555E+01
      5.352  0.4618E+00  0.3604E+01
      5.456  0.5602E+00  0.3662E+01
      5.560  0.2892E+00  0.3692E+01
      5.664  0.2673E+00  0.3720E+01
      5.768  0.2416E+00  0.3745E+01
      5.872  0.2061E+00  0.3766E+01
      5.976  0.2707E+00  0.3795E+01
      6.081  0.2564E+00  0.3821E+01
      6.185  0.9690E-01  0.3831E+01
      6.289  0.5848E-01  0.3838E+01
      6.393  0.2275E-01  0.3840E+01
      6.497  0.7595E-03  0.3840E+01
      6.601  0.3855E-06  0.3840E+01
      6.705  0.8525E-03  0.3840E+01
      6.810  0.3085E-02  0.3840E+01
      6.914  0.7726E-03  0.3840E+01
      7.018  0.6851E-02  0.3841E+01
      7.122  0.7480E-03  0.3841E+01
      7.226  0.6893E-02  0.3842E+01
      7.330  0.7656E-02  0.3843E+01
      7.434  0.5003E-02  0.3843E+01
      7.539  0.1055E-01  0.3844E+01
      7.643  0.2809E-01  0.3847E+01
      7.747  0.4311E-01  0.3852E+01
      7.851  0.4387E-01  0.3856E+01
      7.955  0.4963E-01  0.3862E+01
      8.059  0.8965E-01  0.3871E+01
      8.163  0.7113E-01  0.3878E+01
      8.268  0.1202E+00  0.3891E+01
      8.372  0.6855E-01  0.3898E+01
      8.476  0.8247E-01  0.3907E+01
      8.580  0.1011E+00  0.3917E+01
      8.684  0.8360E-01  0.3926E+01
      8.788  0.3337E+00  0.3961E+01
      8.892  0.2201E+00  0.3983E+01
      8.996  0.2627E+00  0.4011E+01
      9.101  0.1487E+00  0.4026E+01
      9.205  0.3069E+00  0.4058E+01
      9.309  0.2087E+00  0.4080E+01
      9.413  0.2058E+00  0.4101E+01
      9.517  0.1978E+00  0.4122E+01
      9.621  0.2740E+00  0.4151E+01
      9.725  0.2926E+00  0.4181E+01
      9.830  0.2414E+00  0.4206E+01
      9.934  0.2135E+00  0.4228E+01
     10.038  0.2811E+00  0.4258E+01
     10.142  0.3120E+00  0.4290E+01
     10.246  0.2608E+00  0.4317E+01
     10.350  0.2567E+00  0.4344E+01
     10.454  0.2022E+00  0.4365E+01
     10.559  0.2118E+00  0.4387E+01
     10.663  0.1382E+00  0.4402E+01
     10.767  0.2111E+00  0.4424E+01
     10.871  0.1695E+00  0.4441E+01
     10.975  0.2190E+00  0.4464E+01
     11.079  0.3240E+00  0.4498E+01
     11.183  0.3980E+00  0.4539E+01
     11.288  0.3119E+00  0.4572E+01
     11.392  0.3850E+00  0.4612E+01
     11.496  0.1995E+00  0.4633E+01
     11.600  0.4721E-01  0.4638E+01
     11.704  0.2366E-01  0.4640E+01
     11.808  0.3164E-03  0.4640E+01
     11.912  0.5893E-08  0.4640E+01
     12.017  0.3198E-16  0.4640E+01
     12.121  0.0000E+00  0.4640E+01
     12.225  0.0000E+00  0.4640E+01
     12.329  0.0000E+00  0.4640E+01
     12.433  0.0000E+00  0.4640E+01
     12.537  0.0000E+00  0.4640E+01
     12.641  0.0000E+00  0.4640E+01
     12.746  0.0000E+00  0.4640E+01
     12.850  0.0000E+00  0.4640E+01
     12.954  0.0000E+00  0.4640E+01
     13.058  0.0000E+00  0.4640E+01
