 vasp.6.4.3 19Mar24 (build Apr 09 2025 20:43:19) complex                        
  
 executed on             LinuxIFC date 2025.04.11  21:26:43
 running   36 mpi-ranks, on    1 nodes
 distrk:  each k-point on   36 cores,    1 groups
 distr:  one band on NCORE=   9 cores,    4 groups


--------------------------------------------------------------------------------------------------------


 INCAR:
   PREC = Accurate
   IBRION = 2
   NSW = 100
   NELMIN = 5
   ISIF = 3
   ENCUT = 520
   EDIFF = 1.000000e-08
   EDIFFG = -1.000000e-5
   ISMEAR = 0
   SIGMA = 0.05
   IALGO = 38
   LREAL = .FALSE.
   ADDGRID = .TRUE.
   LWAVE = .FALSE.
   LCHARG = .FALSE.
   NCORE = 9

 POTCAR:    PAW_PBE Bi_d 06Sep2000                
 POTCAR:    PAW_PBE Se 06Sep2000                  
 POTCAR:    PAW_PBE O 08Apr2002                   
 POTCAR:    PAW_PBE S 06Sep2000                   
 POTCAR:    PAW_PBE Bi_d 06Sep2000                
   SHA256 =  572e7eac3f9482ff025db24f2820381a7a3856069fa85913dc654793f618f69a Bi_d/POTCAR           
   COPYR  = (c) Copyright 06Sep2000 Georg Kresse                                                    
   COPYR  = This file is part of the software VASP. Any use, copying, and all other rights are regul
   COPYR  = If you do not have a valid VASP license, you may not use, copy or distribute this file. 
   VRHFIN =Bi:                                                                                      
   LEXCH  = PE                                                                                      
   EATOM  =  1959.2045 eV,  143.9975 Ry                                                             
                                                                                                    
   TITEL  = PAW_PBE Bi_d 06Sep2000                                                                  
   LULTRA =        F    use ultrasoft PP ?                                                          
   IUNSCR =        1    unscreen: 0-lin 1-nonlin 2-no                                               
   RPACOR =    2.200    partial core radius                                                         
   POMASS =  208.980; ZVAL   =   15.000    mass and valenz                                          
   RCORE  =    2.500    outmost cutoff radius                                                       
   RWIGS  =    3.090; RWIGS  =    1.635    wigner-seitz radius (au A)                               
   ENMAX  =  242.839; ENMIN  =  182.129 eV                                                          
   ICORE  =        3    local potential                                                             
   LCOR   =        T    correct aug charges                                                         
   LPAW   =        T    paw PP                                                                      
   EAUG   =  442.899                                                                                
   DEXC   =    0.000                                                                                
   RMAX   =    2.551    core radius for proj-oper                                                   
   RAUG   =    1.300    factor for augmentation sphere                                              
   RDEP   =    2.650    radius for radial grids                                                     
   RDEPT  =    2.039    core radius for aug-charge                                                  
                                                                                                    
   Atomic configuration                                                                             
   16 entries                                                                                       
     n  l   j            E        occ.                                                              
     1  0  0.50    -90639.6581   2.0000                                                             
     2  0  0.50    -16282.4666   2.0000                                                             
     2  1  1.50    -13922.8286   6.0000                                                             
     3  0  0.50     -3930.4763   2.0000                                                             
     3  1  1.50     -3256.7013   6.0000                                                             
     3  2  2.50     -2581.6168  10.0000                                                             
     4  0  0.50      -902.2614   2.0000                                                             
     4  1  1.50      -681.5915   6.0000                                                             
     4  2  2.50      -429.8249  10.0000                                                             
     4  3  3.50      -152.6004  14.0000                                                             
     5  0  0.50      -157.7156   2.0000                                                             
     5  1  1.50       -95.8054   6.0000                                                             
     5  2  2.50       -27.0806  10.0000                                                             
     6  0  0.50       -14.4732   2.0000                                                             
     6  1  1.50        -4.5702   3.0000                                                             
     5  3  2.50        -2.7212   0.0000                                                             
   Description                                                                                      
     l       E           TYP  RCUT    TYP  RCUT                                                     
     2    -27.0805982     23  2.500                                                                 
     2     -1.3605826     23  2.500                                                                 
     0    -14.4732271     23  2.500                                                                 
     0      6.8029130     23  2.500                                                                 
     1     -4.5701651     23  2.500                                                                 
     1     13.6058260     23  2.500                                                                 
     3     -1.3605826      7  2.500                                                                 
  local pseudopotential read in
  partial core-charges read in
  partial kinetic energy density read in
  atomic valenz-charges read in
  non local Contribution for L=           2  read in
    real space projection operators read in
  non local Contribution for L=           2  read in
    real space projection operators read in
  non local Contribution for L=           0  read in
    real space projection operators read in
  non local Contribution for L=           0  read in
    real space projection operators read in
  non local Contribution for L=           1  read in
    real space projection operators read in
  non local Contribution for L=           1  read in
    real space projection operators read in
    PAW grid and wavefunctions read in
 
   number of l-projection  operators is LMAX  =           6
   number of lm-projection operators is LMMAX =          18
 
 POTCAR:    PAW_PBE Se 06Sep2000                  
   SHA256 =  eabb916e6b4c819dc065ce039373bc328651da483898f08fb9e49c498452bf12 Se/POTCAR             
   COPYR  = (c) Copyright 06Sep2000 Georg Kresse                                                    
   COPYR  = This file is part of the software VASP. Any use, copying, and all other rights are regul
   COPYR  = If you do not have a valid VASP license, you may not use, copy or distribute this file. 
   VRHFIN =Se: s2p4                                                                                 
   LEXCH  = PE                                                                                      
   EATOM  =   257.1286 eV,   18.8984 Ry                                                             
                                                                                                    
   TITEL  = PAW_PBE Se 06Sep2000                                                                    
   LULTRA =        F    use ultrasoft PP ?                                                          
   IUNSCR =        1    unscreen: 0-lin 1-nonlin 2-no                                               
   RPACOR =    1.900    partial core radius                                                         
   POMASS =   78.960; ZVAL   =    6.000    mass and valenz                                          
   RCORE  =    2.100    outmost cutoff radius                                                       
   RWIGS  =    2.200; RWIGS  =    1.164    wigner-seitz radius (au A)                               
   ENMAX  =  211.555; ENMIN  =  158.666 eV                                                          
   ICORE  =        3    local potential                                                             
   LCOR   =        T    correct aug charges                                                         
   LPAW   =        T    paw PP                                                                      
   EAUG   =  446.842                                                                                
   DEXC   =    0.000                                                                                
   RMAX   =    2.147    core radius for proj-oper                                                   
   RAUG   =    1.300    factor for augmentation sphere                                              
   RDEP   =    2.177    radius for radial grids                                                     
   RDEPT  =    1.928    core radius for aug-charge                                                  
                                                                                                    
   Atomic configuration                                                                             
   10 entries                                                                                       
     n  l   j            E        occ.                                                              
     1  0  0.50    -12503.4787   2.0000                                                             
     2  0  0.50     -1606.9547   2.0000                                                             
     2  1  1.50     -1413.3140   6.0000                                                             
     3  0  0.50      -213.4885   2.0000                                                             
     3  1  1.50      -152.9538   6.0000                                                             
     3  2  2.50       -53.1221  10.0000                                                             
     4  0  0.50       -17.2865   2.0000                                                             
     4  1  0.50        -6.5110   4.0000                                                             
     4  2  2.50        -6.8029   0.0000                                                             
     4  3  2.50        -6.8029   0.0000                                                             
   Description                                                                                      
     l       E           TYP  RCUT    TYP  RCUT                                                     
     0    -17.2865377     23  2.100                                                                 
     0    -15.3094411     23  2.100                                                                 
     1     -6.5110275     23  2.100                                                                 
     1     -0.0695192     23  2.100                                                                 
     2     -6.8029130     23  2.100                                                                 
     3     -1.3605826      7  2.100                                                                 
  local pseudopotential read in
  partial core-charges read in
  partial kinetic energy density read in
  atomic valenz-charges read in
  non local Contribution for L=           0  read in
    real space projection operators read in
  non local Contribution for L=           0  read in
    real space projection operators read in
  non local Contribution for L=           1  read in
    real space projection operators read in
  non local Contribution for L=           1  read in
    real space projection operators read in
  non local Contribution for L=           2  read in
    real space projection operators read in
    PAW grid and wavefunctions read in
 
   number of l-projection  operators is LMAX  =           5
   number of lm-projection operators is LMMAX =          13
 
 POTCAR:    PAW_PBE O 08Apr2002                   
   SHA256 =  818f92134a0a090dccd8ba1447fa70422a3b330e708bb4f08108d8ae51209ddf O/POTCAR              
   COPYR  = (c) Copyright 08Apr2002 Georg Kresse                                                    
   COPYR  = This file is part of the software VASP. Any use, copying, and all other rights are regul
   COPYR  = If you do not have a valid VASP license, you may not use, copy or distribute this file. 
   VRHFIN =O: s2p4                                                                                  
   LEXCH  = PE                                                                                      
   EATOM  =   432.3788 eV,   31.7789 Ry                                                             
                                                                                                    
   TITEL  = PAW_PBE O 08Apr2002                                                                     
   LULTRA =        F    use ultrasoft PP ?                                                          
   IUNSCR =        1    unscreen: 0-lin 1-nonlin 2-no                                               
   RPACOR =    1.200    partial core radius                                                         
   POMASS =   16.000; ZVAL   =    6.000    mass and valenz                                          
   RCORE  =    1.520    outmost cutoff radius                                                       
   RWIGS  =    1.550; RWIGS  =    0.820    wigner-seitz radius (au A)                               
   ENMAX  =  400.000; ENMIN  =  300.000 eV                                                          
   ICORE  =        2    local potential                                                             
   LCOR   =        T    correct aug charges                                                         
   LPAW   =        T    paw PP                                                                      
   EAUG   =  605.392                                                                                
   DEXC   =    0.000                                                                                
   RMAX   =    1.553    core radius for proj-oper                                                   
   RAUG   =    1.300    factor for augmentation sphere                                              
   RDEP   =    1.550    radius for radial grids                                                     
   RDEPT  =    1.329    core radius for aug-charge                                                  
                                                                                                    
   Atomic configuration                                                                             
    4 entries                                                                                       
     n  l   j            E        occ.                                                              
     1  0  0.50      -514.6923   2.0000                                                             
     2  0  0.50       -23.9615   2.0000                                                             
     2  1  0.50        -9.0305   4.0000                                                             
     3  2  1.50        -9.5241   0.0000                                                             
   Description                                                                                      
     l       E           TYP  RCUT    TYP  RCUT                                                     
     0    -23.9615318     23  1.200                                                                 
     0     -9.5240782     23  1.200                                                                 
     1     -9.0304911     23  1.520                                                                 
     1      8.1634956     23  1.520                                                                 
     2     -9.5240782      7  1.500                                                                 
  local pseudopotential read in
  partial core-charges read in
  partial kinetic energy density read in
  kinetic energy density of atom read in
  atomic valenz-charges read in
  non local Contribution for L=           0  read in
    real space projection operators read in
  non local Contribution for L=           0  read in
    real space projection operators read in
  non local Contribution for L=           1  read in
    real space projection operators read in
  non local Contribution for L=           1  read in
    real space projection operators read in
    PAW grid and wavefunctions read in
 
   number of l-projection  operators is LMAX  =           4
   number of lm-projection operators is LMMAX =           8
 
 POTCAR:    PAW_PBE S 06Sep2000                   
   SHA256 =  0fc7481fb0695f01bdc6462160264c5c84044ae9ec85a907d398b887a2bc3132 S/POTCAR              
   COPYR  = (c) Copyright 06Sep2000 Georg Kresse                                                    
   COPYR  = This file is part of the software VASP. Any use, copying, and all other rights are regul
   COPYR  = If you do not have a valid VASP license, you may not use, copy or distribute this file. 
   VRHFIN =S : s2p4                                                                                 
   LEXCH  = PE                                                                                      
   EATOM  =   276.8230 eV,   20.3459 Ry                                                             
                                                                                                    
   TITEL  = PAW_PBE S 06Sep2000                                                                     
   LULTRA =        F    use ultrasoft PP ?                                                          
   IUNSCR =        1    unscreen: 0-lin 1-nonlin 2-no                                               
   RPACOR =    1.500    partial core radius                                                         
   POMASS =   32.066; ZVAL   =    6.000    mass and valenz                                          
   RCORE  =    1.900    outmost cutoff radius                                                       
   RWIGS  =    2.200; RWIGS  =    1.164    wigner-seitz radius (au A)                               
   ENMAX  =  258.689; ENMIN  =  194.016 eV                                                          
   ICORE  =        2    local potential                                                             
   LCOR   =        T    correct aug charges                                                         
   LPAW   =        T    paw PP                                                                      
   EAUG   =  335.092                                                                                
   DEXC   =    0.000                                                                                
   RMAX   =    1.942    core radius for proj-oper                                                   
   RAUG   =    1.300    factor for augmentation sphere                                              
   RDEP   =    1.954    radius for radial grids                                                     
   RDEPT  =    1.744    core radius for aug-charge                                                  
                                                                                                    
   Atomic configuration                                                                             
    6 entries                                                                                       
     n  l   j            E        occ.                                                              
     1  0  0.50     -2405.8406   2.0000                                                             
     2  0  0.50      -211.7007   2.0000                                                             
     2  1  1.50      -156.4958   6.0000                                                             
     3  0  0.50       -17.2562   2.0000                                                             
     3  1  0.50        -7.0085   4.0000                                                             
     3  2  1.50        -6.8029   0.0000                                                             
   Description                                                                                      
     l       E           TYP  RCUT    TYP  RCUT                                                     
     0    -17.2561641     23  1.900                                                                 
     0    -15.8743224     23  1.900                                                                 
     1     -7.0085400     23  1.900                                                                 
     1     -2.7779785     23  1.900                                                                 
     2     -6.8029130     23  1.900                                                                 
  local pseudopotential read in
  partial core-charges read in
  partial kinetic energy density read in
  atomic valenz-charges read in
  non local Contribution for L=           0  read in
    real space projection operators read in
  non local Contribution for L=           0  read in
    real space projection operators read in
  non local Contribution for L=           1  read in
    real space projection operators read in
  non local Contribution for L=           1  read in
    real space projection operators read in
    PAW grid and wavefunctions read in
 
   number of l-projection  operators is LMAX  =           4
   number of lm-projection operators is LMMAX =           8
 
 -----------------------------------------------------------------------------
|                                                                             |
|               ----> ADVICE to this user running VASP <----                  |
|                                                                             |
|     You have a (more or less) 'large supercell' and for larger cells it     |
|     might be more efficient to use real-space projection operators.         |
|     Therefore, try LREAL= Auto in the INCAR file.                           |
|     Mind: For very accurate calculation, you might also keep the            |
|     reciprocal projection scheme (i.e. LREAL=.FALSE.).                      |
|                                                                             |
 -----------------------------------------------------------------------------

  PAW_PBE Bi_d 06Sep2000                :
 energy of atom  1       EATOM=-1959.2045
 kinetic energy error for atom=    0.0040 (will be added to EATOM!!)
  PAW_PBE Se 06Sep2000                  :
 energy of atom  2       EATOM= -257.1286
 kinetic energy error for atom=    0.0007 (will be added to EATOM!!)
  PAW_PBE O 08Apr2002                   :
 energy of atom  3       EATOM= -432.3788
 kinetic energy error for atom=    0.0208 (will be added to EATOM!!)
  PAW_PBE S 06Sep2000                   :
 energy of atom  4       EATOM= -276.8230
 kinetic energy error for atom=    0.0016 (will be added to EATOM!!)
 
 
 POSCAR: generated by phonopy
  positions in direct lattice
  velocities in cartesian coordinates


 exchange-correlation table for PE
   RHO(1)=    0.500       N(1)  =     2000
   RHO(2)=  100.500       N(2)  =     4000
 


--------------------------------------------------------------------------------------------------------


 ion  position               nearest neighbor table
   1  0.249  0.249  0.854-  24 2.34  28 2.34  25 2.34  30 2.34  40 3.30  18 3.31  17 3.31  19 3.32
                            13 3.61   5 3.77   7 3.77   6 3.77   8 3.77   3 3.90   2 3.90
   2  0.751  0.249  0.854-  24 2.34  29 2.34  25 2.34  31 2.34  40 3.30  18 3.31  17 3.31  19 3.32
                            14 3.61   5 3.77   7 3.77   6 3.77   8 3.77   4 3.90   1 3.90
   3  0.249  0.751  0.854-  26 2.34  28 2.34  27 2.34  30 2.34  40 3.30  18 3.31  17 3.31  19 3.32
                            15 3.61   5 3.77   7 3.77   6 3.77   8 3.77   4 3.90   1 3.90
   4  0.751  0.751  0.854-  26 2.34  29 2.34  27 2.34  31 2.34  40 3.30  18 3.31  17 3.31  19 3.32
                            16 3.61   5 3.77   7 3.77   6 3.77   8 3.77   3 3.90   2 3.90
   5  0.000  0.000  0.647-  24 2.34  26 2.34  28 2.34  29 2.34  20 3.31  21 3.31  22 3.31  23 3.31
                             9 3.63   2 3.77   3 3.77   4 3.77   1 3.77   7 3.92   6 3.92   7 3.92
   6  0.500  0.000  0.648-  28 2.34  29 2.34  25 2.34  27 2.34  20 3.32  21 3.32  22 3.32  23 3.32
                            10 3.65   2 3.77   3 3.77   4 3.77   1 3.77   5 3.92   5 3.92   8 3.92
   7  0.000  0.500  0.648-  24 2.34  26 2.34  30 2.34  31 2.34  20 3.32  21 3.32  22 3.32  23 3.32
                            11 3.65   2 3.77   3 3.77   4 3.77   1 3.77   5 3.92   5 3.92   8 3.92
   8  0.500  0.500  0.648-  25 2.34  27 2.34  30 2.34  31 2.34  20 3.32  21 3.32  22 3.32  23 3.32
                            12 3.67   2 3.77   3 3.77   4 3.77   1 3.77   7 3.92   6 3.92   6 3.92
   9  0.000  0.000  0.353-  32 2.34  33 2.34  36 2.34  38 2.34  20 3.31  21 3.31  22 3.31  23 3.31
                             5 3.63  13 3.77  14 3.77  15 3.77  16 3.77  10 3.92  11 3.92  11 3.92
  10  0.500  0.000  0.352-  32 2.34  33 2.34  37 2.34  39 2.34  20 3.32  21 3.32  22 3.32  23 3.32
                             6 3.65  13 3.77  14 3.77  15 3.77  16 3.77   9 3.92   9 3.92  12 3.92
  11  0.000  0.500  0.352-  36 2.34  38 2.34  34 2.34  35 2.34  20 3.32  21 3.32  22 3.32  23 3.32
                             7 3.65  13 3.77  14 3.77  15 3.77  16 3.77   9 3.92   9 3.92  12 3.92
  12  0.500  0.500  0.352-  34 2.34  35 2.34  37 2.34  39 2.34  20 3.32  21 3.32  22 3.32  23 3.32
                             8 3.67  13 3.77  14 3.77  15 3.77  16 3.77  10 3.92  11 3.92  10 3.92
  13  0.249  0.249  0.146-  32 2.34  36 2.34  34 2.34  37 2.34  40 3.30  18 3.31  17 3.31  19 3.32
                             1 3.61   9 3.77  10 3.77  11 3.77  12 3.77  14 3.90  15 3.90
  14  0.751  0.249  0.146-  33 2.34  36 2.34  35 2.34  37 2.34  40 3.30  18 3.31  17 3.31  19 3.32
                             2 3.61   9 3.77  10 3.77  11 3.77  12 3.77  13 3.90  16 3.90
  15  0.249  0.751  0.146-  32 2.34  38 2.34  34 2.34  39 2.34  40 3.30  18 3.31  17 3.31  19 3.32
                             3 3.61   9 3.77  10 3.77  11 3.77  12 3.77  13 3.90  16 3.90
  16  0.751  0.751  0.146-  33 2.34  38 2.34  35 2.34  39 2.34  40 3.30  18 3.31  17 3.31  19 3.32
                             4 3.61   9 3.77  10 3.77  11 3.77  12 3.77  14 3.90  15 3.90
  17  0.500  0.000  0.000-   1 3.31   2 3.31   3 3.31   4 3.31  13 3.31  14 3.31  15 3.31  16 3.31

  18  0.000  0.500  0.000-   1 3.31   2 3.31   3 3.31   4 3.31  13 3.31  14 3.31  15 3.31  16 3.31

  19  0.500  0.500  0.000-   1 3.32   2 3.32   3 3.32   4 3.32  13 3.32  14 3.32  15 3.32  16 3.32

  20  0.250  0.250  0.500-   5 3.31   9 3.31   7 3.32   6 3.32  10 3.32  11 3.32   8 3.32  12 3.32

  21  0.750  0.250  0.500-   5 3.31   9 3.31   7 3.32   6 3.32  10 3.32  11 3.32   8 3.32  12 3.32

  22  0.250  0.750  0.500-   5 3.31   9 3.31   7 3.32   6 3.32  10 3.32  11 3.32   8 3.32  12 3.32

  23  0.750  0.750  0.500-   5 3.31   9 3.31   7 3.32   6 3.32  10 3.32  11 3.32   8 3.32  12 3.32

  24  0.000  0.250  0.750-   1 2.34   2 2.34   5 2.34   7 2.34
  25  0.500  0.250  0.751-   8 2.34   6 2.34   1 2.34   2 2.34
  26  0.000  0.750  0.750-   3 2.34   4 2.34   5 2.34   7 2.34
  27  0.500  0.750  0.751-   8 2.34   6 2.34   3 2.34   4 2.34
  28  0.250  0.000  0.750-   1 2.34   3 2.34   5 2.34   6 2.34
  29  0.750  0.000  0.750-   2 2.34   4 2.34   5 2.34   6 2.34
  30  0.250  0.500  0.751-   8 2.34   7 2.34   1 2.34   3 2.34
  31  0.750  0.500  0.751-   8 2.34   7 2.34   2 2.34   4 2.34
  32  0.250  0.000  0.250-  13 2.34  15 2.34   9 2.34  10 2.34
  33  0.750  0.000  0.250-  14 2.34  16 2.34   9 2.34  10 2.34
  34  0.250  0.500  0.249-  12 2.34  11 2.34  13 2.34  15 2.34
  35  0.750  0.500  0.249-  12 2.34  11 2.34  14 2.34  16 2.34
  36  0.000  0.250  0.250-  13 2.34  14 2.34   9 2.34  11 2.34
  37  0.500  0.250  0.249-  12 2.34  10 2.34  13 2.34  14 2.34
  38  0.000  0.750  0.250-  15 2.34  16 2.34   9 2.34  11 2.34
  39  0.500  0.750  0.249-  12 2.34  10 2.34  15 2.34  16 2.34
  40  0.000  0.000  0.000-   1 3.30   2 3.30   3 3.30   4 3.30  13 3.30  14 3.30  15 3.30  16 3.30

 
  LATTYP: Found a simple tetragonal cell.
 ALAT       =     7.8399950173
 C/A-ratio  =     1.5780666194
  
  Lattice vectors:
  
 A1 = (   7.8399950173,   0.0000000000,   0.0000000000)
 A2 = (   0.0000000000,   7.8399950173,   0.0000000000)
 A3 = (   0.0000000000,   0.0000000000,  12.3720344332)


Analysis of symmetry for initial positions (statically):
=====================================================================
 Subroutine PRICEL returns:
 Original cell was already a primitive cell.
 

 Routine SETGRP: Setting up the symmetry group for a 
 simple tetragonal supercell.


 Subroutine GETGRP returns: Found 16 space group operations
 (whereof 16 operations were pure point group operations)
 out of a pool of 16 trial point group operations.


The static configuration has the point symmetry D_4h.


Analysis of symmetry for dynamics (positions and initial velocities):
=====================================================================
 Subroutine PRICEL returns:
 Original cell was already a primitive cell.
 

 Routine SETGRP: Setting up the symmetry group for a 
 simple tetragonal supercell.


 Subroutine GETGRP returns: Found 16 space group operations
 (whereof 16 operations were pure point group operations)
 out of a pool of 16 trial point group operations.


The dynamic configuration has the point symmetry D_4h.


 Subroutine INISYM returns: Found 16 space group operations
 (whereof 16 operations are pure point group operations),
 and found     1 'primitive' translations


----------------------------------------------------------------------------------------

                                     Primitive cell                                     

  volume of cell :     760.4536

  direct lattice vectors                    reciprocal lattice vectors
     7.839995017  0.000000000  0.000000000     0.127551101  0.000000000  0.000000000
     0.000000000  7.839995017  0.000000000     0.000000000  0.127551101  0.000000000
     0.000000000  0.000000000 12.372034433     0.000000000  0.000000000  0.080827450

  length of vectors
     7.839995017  7.839995017 12.372034433     0.127551101  0.127551101  0.080827450

  position of ions in fractional coordinates (direct lattice)
     0.248910988  0.248910988  0.854286893
     0.751089012  0.248910988  0.854286893
     0.248910988  0.751089012  0.854286893
     0.751089012  0.751089012  0.854286893
     0.000000000  0.000000000  0.646712876
     0.500000000  0.000000000  0.647510539
     0.000000000  0.500000000  0.647510539
     0.500000000  0.500000000  0.648411834
     0.000000000  0.000000000  0.353287124
     0.500000000  0.000000000  0.352489461
     0.000000000  0.500000000  0.352489461
     0.500000000  0.500000000  0.351588166
     0.248910988  0.248910988  0.145713107
     0.751089012  0.248910988  0.145713107
     0.248910988  0.751089012  0.145713107
     0.751089012  0.751089012  0.145713107
     0.500000000  0.000000000  0.000000000
     0.000000000  0.500000000  0.000000000
     0.500000000  0.500000000  0.000000000
     0.250137717  0.250137717  0.500000000
     0.749862283  0.250137717  0.500000000
     0.250137717  0.749862283  0.500000000
     0.749862283  0.749862283  0.500000000
     0.000000000  0.249535363  0.750473209
     0.500000000  0.249670389  0.751393975
     0.000000000  0.750464637  0.750473209
     0.500000000  0.750329611  0.751393975
     0.249535363  0.000000000  0.750473209
     0.750464637  0.000000000  0.750473209
     0.249670389  0.500000000  0.751393975
     0.750329611  0.500000000  0.751393975
     0.249535363  0.000000000  0.249526791
     0.750464637  0.000000000  0.249526791
     0.249670389  0.500000000  0.248606025
     0.750329611  0.500000000  0.248606025
     0.000000000  0.249535363  0.249526791
     0.500000000  0.249670389  0.248606025
     0.000000000  0.750464637  0.249526791
     0.500000000  0.750329611  0.248606025
     0.000000000  0.000000000  0.000000000

  ion indices of the primitive-cell ions
   primitive index   ion index
                 1           1
                 2           2
                 3           3
                 4           4
                 5           5
                 6           6
                 7           7
                 8           8
                 9           9
                10          10
                11          11
                12          12
                13          13
                14          14
                15          15
                16          16
                17          17
                18          18
                19          19
                20          20
                21          21
                22          22
                23          23
                24          24
                25          25
                26          26
                27          27
                28          28
                29          29
                30          30
                31          31
                32          32
                33          33
                34          34
                35          35
                36          36
                37          37
                38          38
                39          39
                40          40

----------------------------------------------------------------------------------------

 
 
 KPOINTS: K-Spacing Value to Generate K-Mesh: 0.03

Automatic generation of k-mesh.
 Grid dimensions read from file:
 generate k-points for:    4    4    3

 Generating k-lattice:

  Cartesian coordinates                     Fractional coordinates (reciprocal lattice)
     0.031887775  0.000000000  0.000000000     0.250000000  0.000000000  0.000000000
     0.000000000  0.031887775  0.000000000     0.000000000  0.250000000  0.000000000
     0.000000000  0.000000000  0.026942483     0.000000000  0.000000000  0.333333333

  Length of vectors
     0.031887775  0.031887775  0.026942483

  Shift w.r.t. Gamma in fractional coordinates (k-lattice)
     0.000000000  0.000000000  0.000000000

 
 Subroutine IBZKPT returns following result:
 ===========================================
 
 Found     12 irreducible k-points:
 
 Following reciprocal coordinates:
            Coordinates               Weight
  0.000000  0.000000  0.000000      1.000000
  0.250000  0.000000  0.000000      4.000000
  0.500000  0.000000  0.000000      2.000000
  0.250000  0.250000  0.000000      4.000000
  0.500000  0.250000  0.000000      4.000000
  0.500000  0.500000  0.000000      1.000000
  0.000000  0.000000  0.333333      2.000000
  0.250000  0.000000  0.333333      8.000000
  0.500000  0.000000  0.333333      4.000000
  0.250000  0.250000  0.333333      8.000000
  0.500000  0.250000  0.333333      8.000000
  0.500000  0.500000  0.333333      2.000000
 
 Following cartesian coordinates:
            Coordinates               Weight
  0.000000  0.000000  0.000000      1.000000
  0.031888  0.000000  0.000000      4.000000
  0.063776  0.000000  0.000000      2.000000
  0.031888  0.031888  0.000000      4.000000
  0.063776  0.031888  0.000000      4.000000
  0.063776  0.063776  0.000000      1.000000
  0.000000  0.000000  0.026942      2.000000
  0.031888  0.000000  0.026942      8.000000
  0.063776  0.000000  0.026942      4.000000
  0.031888  0.031888  0.026942      8.000000
  0.063776  0.031888  0.026942      8.000000
  0.063776  0.063776  0.026942      2.000000
 


--------------------------------------------------------------------------------------------------------




 Dimension of arrays:
   k-points           NKPTS =     12   k-points in BZ     NKDIM =     12   number of bands    NBANDS=    232
   number of dos      NEDOS =    301   number of ions     NIONS =     40
   non local maximal  LDIM  =      6   non local SUM 2l+1 LMDIM =     18
   total plane-waves  NPLWV = 345600
   max r-space proj   IRMAX =      1   max aug-charges    IRDMAX= 160858
   dimension x,y,z NGX =    60 NGY =   60 NGZ =   96
   dimension x,y,z NGXF=   120 NGYF=  120 NGZF=  192
   support grid    NGXF=   240 NGYF=  240 NGZF=  384
   ions per type =              16   7  16   1
   NGX,Y,Z   is equivalent  to a cutoff of  12.72, 12.72, 12.90 a.u.
   NGXF,Y,Z  is equivalent  to a cutoff of  25.45, 25.45, 25.80 a.u.

 SYSTEM =  unknown system                          
 POSCAR =  generated by phonopy                    

 Startparameter for this run:
   NWRITE =      2    write-flag & timer
   PREC   = accura    normal or accurate (medium, high low for compatibility)
   ISTART =      0    job   : 0-new  1-cont  2-samecut
   ICHARG =      2    charge: 1-file 2-atom 10-const
   ISPIN  =      1    spin polarized calculation?
   LNONCOLLINEAR =      F non collinear calculations
   LSORBIT =      F    spin-orbit coupling
   INIWAV =      1    electr: 0-lowe 1-rand  2-diag
   LASPH  =      F    aspherical Exc in radial PAW
 Electronic Relaxation 1
   ENCUT  =  520.0 eV  38.22 Ry    6.18 a.u.  14.58 14.58 23.00*2*pi/ulx,y,z
   ENINI  =  520.0     initial cutoff
   ENAUG  =  605.4 eV  augmentation charge cutoff
   NELM   =     60;   NELMIN=  5; NELMDL= -5     # of ELM steps 
   EDIFF  = 0.1E-07   stopping-criterion for ELM
   LREAL  =      F    real-space projection
   NLSPLINE    = F    spline interpolate recip. space projectors
   LCOMPAT=      F    compatible to vasp.4.4
   GGA_COMPAT  = T    GGA compatible to vasp.4.4-vasp.4.6
   LMAXPAW     = -100 max onsite density
   LMAXMIX     =    2 max onsite mixed and CHGCAR
   VOSKOWN=      0    Vosko Wilk Nusair interpolation
   ROPT   =    0.00000   0.00000   0.00000   0.00000
 Ionic relaxation
   EDIFFG = -.1E-04   stopping-criterion for IOM
   NSW    =    100    number of steps for IOM
   NBLOCK =      1;   KBLOCK =    100    inner block; outer block 
   IBRION =      2    ionic relax: 0-MD 1-quasi-New 2-CG
   NFREE  =      1    steps in history (QN), initial steepest desc. (CG)
   ISIF   =      3    stress and relaxation
   IWAVPR =     11    prediction:  0-non 1-charg 2-wave 3-comb
   ISYM   =      2    0-nonsym 1-usesym 2-fastsym
   LCORR  =      T    Harris-Foulkes like correction to forces

   POTIM  = 0.5000    time-step for ionic-motion
   TEIN   =    0.0    initial temperature
   TEBEG  =    0.0;   TEEND  =   0.0 temperature during run
   SMASS  =  -3.00    Nose mass-parameter (am)
   estimated Nose-frequenzy (Omega)   =  0.10E-29 period in steps = 0.13E+47 mass=  -0.140E-26a.u.
   SCALEE = 1.0000    scale energy and forces
   NPACO  =    256;   APACO  = 10.0  distance and # of slots for P.C.
   PSTRESS=    0.0 pullay stress

  Mass of Ions in am
   POMASS = 208.98 78.96 16.00 32.07
  Ionic Valenz
   ZVAL   =  15.00  6.00  6.00  6.00
  Atomic Wigner-Seitz radii
   RWIGS  =  -1.00 -1.00 -1.00 -1.00
  virtual crystal weights 
   VCA    =   1.00  1.00  1.00  1.00
   NELECT =     384.0000    total number of electrons
   NUPDOWN=      -1.0000    fix difference up-down

 DOS related values:
   EMIN   =  10.00;   EMAX   =-10.00  energy-range for DOS
   EFERMI =   0.00;   METHOD = LEGACY      
   ISMEAR =     0;   SIGMA  =   0.05  broadening in eV -4-tet -1-fermi 0-gaus

 Electronic relaxation 2 (details)
   IALGO  =     38    algorithm
   LDIAG  =      T    sub-space diagonalisation (order eigenvalues)
   LSUBROT=      F    optimize rotation matrix (better conditioning)
   TURBO    =      0    0=normal 1=particle mesh
   IRESTART =      0    0=no restart 2=restart with 2 vectors
   NREBOOT  =      0    no. of reboots
   NMIN     =      0    reboot dimension
   EREF     =   0.00    reference energy to select bands
   IMIX   =      4    mixing-type and parameters
     AMIX     =   0.40;   BMIX     =  1.00
     AMIX_MAG =   1.60;   BMIX_MAG =  1.00
     AMIN     =   0.10
     WC   =   100.;   INIMIX=   1;  MIXPRE=   1;  MAXMIX= -45

 Intra band minimization:
   WEIMIN = 0.0010     energy-eigenvalue tresh-hold
   EBREAK =  0.11E-10  absolut break condition
   DEPER  =   0.30     relativ break condition  

   TIME   =   0.40     timestep for ELM

  volume/ion in A,a.u.               =      19.01       128.29
  Fermi-wavevector in a.u.,A,eV,Ry     =   1.303650  2.463541 23.123146  1.699503
  Thomas-Fermi vector in A             =   2.434638
 
 Write flags
   LWAVE        =      F    write WAVECAR
   LDOWNSAMPLE  =      F    k-point downsampling of WAVECAR
   LCHARG       =      F    write CHGCAR
   LVTOT        =      F    write LOCPOT, total local potential
   LVHAR        =      F    write LOCPOT, Hartree potential only
   WRT_POTENTIAL= false  ! write potential to hdf5 file
   LELF         =      F    write electronic localiz. function (ELF)
   LORBIT       =      0    0 simple, 1 ext, 2 COOP (PROOUT), +10 PAW based schemes


 Dipole corrections
   LMONO      =      F    monopole corrections only (constant potential shift)
   LDIPOL     =      F    correct potential (dipole corrections)
   IDIPOL     =      0    1-x, 2-y, 3-z, 4-all directions 
   EPSILON    =  1.0000000 bulk dielectric constant
   LVACPOTAV  =      F  vacuum potentials using an averaging scheme for the charge density
   VACPOTFLAT =  0.1000000 required flatness to determine vacuum potential
 Exchange correlation treatment:
   GGA     = PE    functional components
   XC_C    = 1    coefficients multiplying the functional components
   LIBXC   =     F    Libxc                    
   VOSKOWN =     0    Vosko Wilk Nusair interpolation
   LHFCALC =     F    Hartree Fock is set to
   LHFONE  =     F    Hartree Fock one center treatment
   AEXX    =    0.0000 exact exchange contribution

 Parameters of functionals:
   PE:
     No parameter
 
 Van der Waals corrections
   IVDW    =     0    specifies the selected vdW correction

 Linear response parameters
   LEPSILON=     F    determine dielectric tensor
   LRPA    =     F    only Hartree local field effects (RPA)
   LNABLA  =     F    use nabla operator in PAW spheres
   LVEL    =     F    velocity operator in full k-point grid
   CSHIFT  =0.1000    complex shift for real part using Kramers Kronig
   OMEGAMAX=  -1.0    maximum frequency
   DEG_THRESHOLD= 0.2000000E-02 threshold for treating states as degnerate
   RTIME   =   -0.100 relaxation time in fs
  (WPLASMAI=    0.000 imaginary part of plasma frequency in eV, 0.658/RTIME)
   DFIELD  = 0.0000000 0.0000000 0.0000000 field for delta impulse in time
 
  Optional k-point grid parameters
   LKPOINTS_OPT  =     F    use optional k-point grid
   KPOINTS_OPT_MODE=     1    mode for optional k-point grid
 
 Orbital magnetization related:
   ORBITALMAG=     F  switch on orbital magnetization
   LCHIMAG   =     F  perturbation theory with respect to B field
   DQ        =  0.001000  dq finite difference perturbation B field
   LLRAUG    =     F  two centre corrections for induced B field
   LBONE     =     F  B-component reconstruction in AE one-centre
   LVGVCALC  =     T  calculate vGv susceptibility
   LVGVAPPL  =     F  apply vGv susceptibility instead of pGv for G=0

 Random number generation:
   RANDOM_GENERATOR = DEFAULT
   PCG_SEED         = not used


--------------------------------------------------------------------------------------------------------


 conjugate gradient relaxation of ions
 charge density and potential will be updated during run
 non-spin polarized calculation
 Variant of blocked Davidson
 Davidson routine will perform the subspace rotation
 perform sub-space diagonalisation
    after iterative eigenvector-optimisation
 modified Broyden-mixing scheme, WC =      100.0
 initial mixing is a Kerker type mixing with AMIX =  0.4000 and BMIX =      1.0000
 Hartree-type preconditioning will be used
 using additional bands           40
 reciprocal scheme for non local part
 use partial core corrections
 calculate Harris-corrections to forces 
   (improved forces if not selfconsistent)
 use gradient corrections 
 use of overlap-Matrix (Vanderbilt PP)
 Gauss-broadening in eV      SIGMA  =   0.05


--------------------------------------------------------------------------------------------------------


  energy-cutoff  :      520.00
  volume of cell :      760.45
      direct lattice vectors                 reciprocal lattice vectors
     7.839995017  0.000000000  0.000000000     0.127551101  0.000000000  0.000000000
     0.000000000  7.839995017  0.000000000     0.000000000  0.127551101  0.000000000
     0.000000000  0.000000000 12.372034433     0.000000000  0.000000000  0.080827450

  length of vectors
     7.839995017  7.839995017 12.372034433     0.127551101  0.127551101  0.080827450


 
 k-points in units of 2pi/SCALE and weight: K-Spacing Value to Generate K-Mesh: 0.03
   0.00000000  0.00000000  0.00000000       0.021
   0.03188778  0.00000000  0.00000000       0.083
   0.06377555  0.00000000  0.00000000       0.042
   0.03188778  0.03188778  0.00000000       0.083
   0.06377555  0.03188778  0.00000000       0.083
   0.06377555  0.06377555  0.00000000       0.021
   0.00000000  0.00000000  0.02694248       0.042
   0.03188778  0.00000000  0.02694248       0.167
   0.06377555  0.00000000  0.02694248       0.083
   0.03188778  0.03188778  0.02694248       0.167
   0.06377555  0.03188778  0.02694248       0.167
   0.06377555  0.06377555  0.02694248       0.042
 
 k-points in reciprocal lattice and weights: K-Spacing Value to Generate K-Mesh: 0.03
   0.00000000  0.00000000  0.00000000       0.021
   0.25000000  0.00000000  0.00000000       0.083
   0.50000000  0.00000000  0.00000000       0.042
   0.25000000  0.25000000  0.00000000       0.083
   0.50000000  0.25000000  0.00000000       0.083
   0.50000000  0.50000000  0.00000000       0.021
   0.00000000  0.00000000  0.33333333       0.042
   0.25000000  0.00000000  0.33333333       0.167
   0.50000000  0.00000000  0.33333333       0.083
   0.25000000  0.25000000  0.33333333       0.167
   0.50000000  0.25000000  0.33333333       0.167
   0.50000000  0.50000000  0.33333333       0.042
 
 position of ions in fractional coordinates (direct lattice) 
   0.24891099  0.24891099  0.85428689
   0.75108901  0.24891099  0.85428689
   0.24891099  0.75108901  0.85428689
   0.75108901  0.75108901  0.85428689
   0.00000000  0.00000000  0.64671288
   0.50000000  0.00000000  0.64751054
   0.00000000  0.50000000  0.64751054
   0.50000000  0.50000000  0.64841183
   0.00000000  0.00000000  0.35328712
   0.50000000  0.00000000  0.35248946
   0.00000000  0.50000000  0.35248946
   0.50000000  0.50000000  0.35158817
   0.24891099  0.24891099  0.14571311
   0.75108901  0.24891099  0.14571311
   0.24891099  0.75108901  0.14571311
   0.75108901  0.75108901  0.14571311
   0.50000000  0.00000000  0.00000000
   0.00000000  0.50000000  0.00000000
   0.50000000  0.50000000  0.00000000
   0.25013772  0.25013772  0.50000000
   0.74986228  0.25013772  0.50000000
   0.25013772  0.74986228  0.50000000
   0.74986228  0.74986228  0.50000000
   0.00000000  0.24953536  0.75047321
   0.50000000  0.24967039  0.75139398
   0.00000000  0.75046464  0.75047321
   0.50000000  0.75032961  0.75139398
   0.24953536  0.00000000  0.75047321
   0.75046464  0.00000000  0.75047321
   0.24967039  0.50000000  0.75139398
   0.75032961  0.50000000  0.75139398
   0.24953536  0.00000000  0.24952679
   0.75046464  0.00000000  0.24952679
   0.24967039  0.50000000  0.24860602
   0.75032961  0.50000000  0.24860602
   0.00000000  0.24953536  0.24952679
   0.50000000  0.24967039  0.24860602
   0.00000000  0.75046464  0.24952679
   0.50000000  0.75032961  0.24860602
   0.00000000  0.00000000  0.00000000
 
 position of ions in cartesian coordinates  (Angst):
   1.95146091  1.95146091 10.56926685
   5.88853411  1.95146091 10.56926685
   1.95146091  5.88853411 10.56926685
   5.88853411  5.88853411 10.56926685
   0.00000000  0.00000000  8.00115397
   3.91999751  0.00000000  8.01102269
   0.00000000  3.91999751  8.01102269
   3.91999751  3.91999751  8.02217354
   0.00000000  0.00000000  4.37088046
   3.91999751  0.00000000  4.36101175
   0.00000000  3.91999751  4.36101175
   3.91999751  3.91999751  4.34986090
   1.95146091  1.95146091  1.80276758
   5.88853411  1.95146091  1.80276758
   1.95146091  5.88853411  1.80276758
   5.88853411  5.88853411  1.80276758
   3.91999751  0.00000000  0.00000000
   0.00000000  3.91999751  0.00000000
   3.91999751  3.91999751  0.00000000
   1.96107845  1.96107845  6.18601722
   5.87891656  1.96107845  6.18601722
   1.96107845  5.87891656  6.18601722
   5.87891656  5.87891656  6.18601722
   0.00000000  1.95635600  9.28488038
   3.91999751  1.95741460  9.29627214
   0.00000000  5.88363901  9.28488038
   3.91999751  5.88258041  9.29627214
   1.95635600  0.00000000  9.28488038
   5.88363901  0.00000000  9.28488038
   1.95741460  3.91999751  9.29627214
   5.88258041  3.91999751  9.29627214
   1.95635600  0.00000000  3.08715405
   5.88363901  0.00000000  3.08715405
   1.95741460  3.91999751  3.07576230
   5.88258041  3.91999751  3.07576230
   0.00000000  1.95635600  3.08715405
   3.91999751  1.95741460  3.07576230
   0.00000000  5.88363901  3.08715405
   3.91999751  5.88258041  3.07576230
   0.00000000  0.00000000  0.00000000
 


--------------------------------------------------------------------------------------------------------


 k-point     1 :   0.0000 0.0000 0.0000  plane waves:   20487
 k-point     2 :   0.2500 0.0000 0.0000  plane waves:   20515
 k-point     3 :   0.5000 0.0000 0.0000  plane waves:   20478
 k-point     4 :   0.2500 0.2500 0.0000  plane waves:   20477
 k-point     5 :   0.5000 0.2500 0.0000  plane waves:   20476
 k-point     6 :   0.5000 0.5000 0.0000  plane waves:   20360
 k-point     7 :   0.0000 0.0000 0.3333  plane waves:   20498
 k-point     8 :   0.2500 0.0000 0.3333  plane waves:   20483
 k-point     9 :   0.5000 0.0000 0.3333  plane waves:   20472
 k-point    10 :   0.2500 0.2500 0.3333  plane waves:   20489
 k-point    11 :   0.5000 0.2500 0.3333  plane waves:   20476
 k-point    12 :   0.5000 0.5000 0.3333  plane waves:   20408

 maximum and minimum number of plane-waves per node :      2299     2246

 maximum number of plane-waves:     20515
 maximum index in each direction: 
   IXMAX=   14   IYMAX=   14   IZMAX=   23
   IXMIN=  -15   IYMIN=  -15   IZMIN=  -23


 parallel 3D FFT for wavefunctions:
    minimum data exchange during FFTs selected (reduces bandwidth)
 parallel 3D FFT for charge:
    minimum data exchange during FFTs selected (reduces bandwidth)


 total amount of memory used by VASP MPI-rank0    95129. kBytes
=======================================================================

   base      :      30000. kBytes
   nonl-proj :      17369. kBytes
   fftplans  :      13005. kBytes
   grid      :       8308. kBytes
   one-center:         77. kBytes
   wavefun   :      26370. kBytes
 
     INWAV:  cpu time      0.0001: real time      0.0001
 Broyden mixing: mesh for mixing (old mesh)
   NGX = 29   NGY = 29   NGZ = 47
  (NGX  =120   NGY  =120   NGZ  =192)
  gives a total of  39527 points

 initial charge density was supplied:
 charge density of overlapping atoms calculated
 number of electron     384.0000000 magnetization 
 keeping initial charge density in first step


--------------------------------------------------------------------------------------------------------


 Maximum index for augmentation-charges         5198 (set IRDMAX)


--------------------------------------------------------------------------------------------------------


 First call to EWALD:  gamma=   0.194
 Maximum number of real-space cells 3x 3x 2
 Maximum number of reciprocal cells 2x 2x 4

    FEWALD:  cpu time      0.0036: real time      0.0036


--------------------------------------- Ionic step        1  -------------------------------------------




--------------------------------------- Iteration      1(   1)  ---------------------------------------


    POTLOK:  cpu time      0.1805: real time      0.1809
    SETDIJ:  cpu time      0.6698: real time      0.6698
     EDDAV:  cpu time     32.5507: real time     32.5640
       DOS:  cpu time      0.0022: real time      0.0023
    --------------------------------------------
      LOOP:  cpu time     33.4031: real time     33.4171

 eigenvalue-minimisations  :  5568
 total energy-change (2. order) : 0.5620137E+04  (-0.1756346E+05)
 number of electron     384.0000000 magnetization 
 augmentation part      384.0000000 magnetization 

 Free energy of the ion-electron system (eV)
  ---------------------------------------------------
  alpha Z        PSCENC =      1328.36011859
  Ewald energy   TEWEN  =    -29443.85878275
  -Hartree energ DENC   =    -11397.35508248
  -exchange      EXHF   =         0.00000000
  -V(xc)+E(xc)   XCENC  =      1234.42080356
  PAW double counting   =     34040.00696010   -33495.80632930
  entropy T*S    EENTRO =        -0.00389990
  eigenvalues    EBANDS =      3012.72186619
  atomic energy  EATOM  =     40341.65184589
  Solvation  Ediel_sol  =         0.00000000
  ---------------------------------------------------
  free energy    TOTEN  =      5620.13749991 eV

  energy without entropy =     5620.14139981  energy(sigma->0) =     5620.13944986


--------------------------------------------------------------------------------------------------------




--------------------------------------- Iteration      1(   2)  ---------------------------------------


     EDDAV:  cpu time     32.6528: real time     32.6614
       DOS:  cpu time      0.0018: real time      0.0020
    --------------------------------------------
      LOOP:  cpu time     32.6547: real time     32.6634

 eigenvalue-minimisations  :  5592
 total energy-change (2. order) :-0.4663639E+04  (-0.4523403E+04)
 number of electron     384.0000000 magnetization 
 augmentation part      384.0000000 magnetization 

 Free energy of the ion-electron system (eV)
  ---------------------------------------------------
  alpha Z        PSCENC =      1328.36011859
  Ewald energy   TEWEN  =    -29443.85878275
  -Hartree energ DENC   =    -11397.35508248
  -exchange      EXHF   =         0.00000000
  -V(xc)+E(xc)   XCENC  =      1234.42080356
  PAW double counting   =     34040.00696010   -33495.80632930
  entropy T*S    EENTRO =        -0.00691184
  eigenvalues    EBANDS =     -1650.91385161
  atomic energy  EATOM  =     40341.65184589
  Solvation  Ediel_sol  =         0.00000000
  ---------------------------------------------------
  free energy    TOTEN  =       956.49877017 eV

  energy without entropy =      956.50568201  energy(sigma->0) =      956.50222609


--------------------------------------------------------------------------------------------------------




--------------------------------------- Iteration      1(   3)  ---------------------------------------


     EDDAV:  cpu time     35.2287: real time     35.2384
       DOS:  cpu time      0.0024: real time      0.0025
    --------------------------------------------
      LOOP:  cpu time     35.2311: real time     35.2410

 eigenvalue-minimisations  :  6216
 total energy-change (2. order) :-0.1068880E+04  (-0.9947453E+03)
 number of electron     384.0000000 magnetization 
 augmentation part      384.0000000 magnetization 

 Free energy of the ion-electron system (eV)
  ---------------------------------------------------
  alpha Z        PSCENC =      1328.36011859
  Ewald energy   TEWEN  =    -29443.85878275
  -Hartree energ DENC   =    -11397.35508248
  -exchange      EXHF   =         0.00000000
  -V(xc)+E(xc)   XCENC  =      1234.42080356
  PAW double counting   =     34040.00696010   -33495.80632930
  entropy T*S    EENTRO =        -0.00000000
  eigenvalues    EBANDS =     -2719.80087146
  atomic energy  EATOM  =     40341.65184589
  Solvation  Ediel_sol  =         0.00000000
  ---------------------------------------------------
  free energy    TOTEN  =      -112.38133784 eV

  energy without entropy =     -112.38133784  energy(sigma->0) =     -112.38133784


--------------------------------------------------------------------------------------------------------




--------------------------------------- Iteration      1(   4)  ---------------------------------------


     EDDAV:  cpu time     36.8939: real time     36.8996
       DOS:  cpu time      0.0014: real time      0.0015
    --------------------------------------------
      LOOP:  cpu time     36.8953: real time     36.9011

 eigenvalue-minimisations  :  6616
 total energy-change (2. order) :-0.1252124E+03  (-0.1215279E+03)
 number of electron     384.0000000 magnetization 
 augmentation part      384.0000000 magnetization 

 Free energy of the ion-electron system (eV)
  ---------------------------------------------------
  alpha Z        PSCENC =      1328.36011859
  Ewald energy   TEWEN  =    -29443.85878275
  -Hartree energ DENC   =    -11397.35508248
  -exchange      EXHF   =         0.00000000
  -V(xc)+E(xc)   XCENC  =      1234.42080356
  PAW double counting   =     34040.00696010   -33495.80632930
  entropy T*S    EENTRO =        -0.00000000
  eigenvalues    EBANDS =     -2845.01330950
  atomic energy  EATOM  =     40341.65184589
  Solvation  Ediel_sol  =         0.00000000
  ---------------------------------------------------
  free energy    TOTEN  =      -237.59377588 eV

  energy without entropy =     -237.59377588  energy(sigma->0) =     -237.59377588


--------------------------------------------------------------------------------------------------------




--------------------------------------- Iteration      1(   5)  ---------------------------------------


     EDDAV:  cpu time     37.4532: real time     37.4601
       DOS:  cpu time      0.0015: real time      0.0016
    CHARGE:  cpu time      1.2774: real time      1.2784
    MIXING:  cpu time      0.0087: real time      0.0087
    --------------------------------------------
      LOOP:  cpu time     38.7408: real time     38.7489

 eigenvalue-minimisations  :  6752
 total energy-change (2. order) :-0.5742667E+01  (-0.5662378E+01)
 number of electron     384.0000008 magnetization 
 augmentation part       98.5333366 magnetization 

 Broyden mixing:
  rms(total) = 0.34204E+01    rms(broyden)= 0.34197E+01
  rms(prec ) = 0.43676E+01
  weight for this iteration     100.00

 Free energy of the ion-electron system (eV)
  ---------------------------------------------------
  alpha Z        PSCENC =      1328.36011859
  Ewald energy   TEWEN  =    -29443.85878275
  -Hartree energ DENC   =    -11397.35508248
  -exchange      EXHF   =         0.00000000
  -V(xc)+E(xc)   XCENC  =      1234.42080356
  PAW double counting   =     34040.00696010   -33495.80632930
  entropy T*S    EENTRO =        -0.00000000
  eigenvalues    EBANDS =     -2850.75597649
  atomic energy  EATOM  =     40341.65184589
  Solvation  Ediel_sol  =         0.00000000
  ---------------------------------------------------
  free energy    TOTEN  =      -243.33644287 eV

  energy without entropy =     -243.33644287  energy(sigma->0) =     -243.33644287


--------------------------------------------------------------------------------------------------------




--------------------------------------- Iteration      1(   6)  ---------------------------------------


    POTLOK:  cpu time      0.1754: real time      0.1755
    SETDIJ:  cpu time      0.6750: real time      0.6752
     EDDAV:  cpu time     41.2763: real time     41.2770
       DOS:  cpu time      0.0015: real time      0.0017
    CHARGE:  cpu time      1.2811: real time      1.2815
    MIXING:  cpu time      0.0068: real time      0.0068
    --------------------------------------------
      LOOP:  cpu time     43.4161: real time     43.4177

 eigenvalue-minimisations  :  7680
 total energy-change (2. order) : 0.3437628E+02  (-0.1458699E+02)
 number of electron     384.0000007 magnetization 
 augmentation part       95.1468139 magnetization 

 Broyden mixing:
  rms(total) = 0.13616E+01    rms(broyden)= 0.13600E+01
  rms(prec ) = 0.16291E+01
  weight for this iteration     100.00

 eigenvalues of (default mixing * dielectric matrix)
  average eigenvalue GAMMA=   0.7617
  0.7617

 Free energy of the ion-electron system (eV)
  ---------------------------------------------------
  alpha Z        PSCENC =      1328.36011859
  Ewald energy   TEWEN  =    -29443.85878275
  -Hartree energ DENC   =    -11643.73449107
  -exchange      EXHF   =         0.00000000
  -V(xc)+E(xc)   XCENC  =      1254.21195256
  PAW double counting   =     34668.30931492   -34080.94724187
  entropy T*S    EENTRO =        -0.00000000
  eigenvalues    EBANDS =     -2632.95287745
  atomic energy  EATOM  =     40341.65184589
  Solvation  Ediel_sol  =         0.00000000
  ---------------------------------------------------
  free energy    TOTEN  =      -208.96016118 eV

  energy without entropy =     -208.96016118  energy(sigma->0) =     -208.96016118


--------------------------------------------------------------------------------------------------------




--------------------------------------- Iteration      1(   7)  ---------------------------------------


    POTLOK:  cpu time      0.1756: real time      0.1756
    SETDIJ:  cpu time      0.6752: real time      0.6756
     EDDAV:  cpu time     34.9158: real time     34.9205
       DOS:  cpu time      0.0020: real time      0.0021
    CHARGE:  cpu time      1.2822: real time      1.2830
    MIXING:  cpu time      0.0070: real time      0.0070
    --------------------------------------------
      LOOP:  cpu time     37.0578: real time     37.0638

 eigenvalue-minimisations  :  6144
 total energy-change (2. order) : 0.1550413E+00  (-0.2937386E+01)
 number of electron     384.0000008 magnetization 
 augmentation part       95.0041586 magnetization 

 Broyden mixing:
  rms(total) = 0.81109E+00    rms(broyden)= 0.81109E+00
  rms(prec ) = 0.88846E+00
  weight for this iteration     100.00

 eigenvalues of (default mixing * dielectric matrix)
  average eigenvalue GAMMA=   1.1212
  1.1212  1.1212

 Free energy of the ion-electron system (eV)
  ---------------------------------------------------
  alpha Z        PSCENC =      1328.36011859
  Ewald energy   TEWEN  =    -29443.85878275
  -Hartree energ DENC   =    -11553.95517207
  -exchange      EXHF   =         0.00000000
  -V(xc)+E(xc)   XCENC  =      1250.80915740
  PAW double counting   =     35414.12390316   -34819.79225773
  entropy T*S    EENTRO =        -0.00000000
  eigenvalues    EBANDS =     -2726.14393241
  atomic energy  EATOM  =     40341.65184589
  Solvation  Ediel_sol  =         0.00000000
  ---------------------------------------------------
  free energy    TOTEN  =      -208.80511991 eV

  energy without entropy =     -208.80511991  energy(sigma->0) =     -208.80511991


--------------------------------------------------------------------------------------------------------




--------------------------------------- Iteration      1(   8)  ---------------------------------------


    POTLOK:  cpu time      0.1757: real time      0.1759
    SETDIJ:  cpu time      0.6733: real time      0.6734
     EDDAV:  cpu time     42.5526: real time     42.5517
       DOS:  cpu time      0.0018: real time      0.0019
    CHARGE:  cpu time      1.2811: real time      1.2812
    MIXING:  cpu time      0.0067: real time      0.0067
    --------------------------------------------
      LOOP:  cpu time     44.6911: real time     44.6909

 eigenvalue-minimisations  :  8000
 total energy-change (2. order) :-0.1421048E+00  (-0.5926193E+00)
 number of electron     384.0000008 magnetization 
 augmentation part       95.3422204 magnetization 

 Broyden mixing:
  rms(total) = 0.34950E+00    rms(broyden)= 0.34934E+00
  rms(prec ) = 0.41429E+00
  weight for this iteration     100.00

 eigenvalues of (default mixing * dielectric matrix)
  average eigenvalue GAMMA=   1.3088
  2.2379  0.8443  0.8443

 Free energy of the ion-electron system (eV)
  ---------------------------------------------------
  alpha Z        PSCENC =      1328.36011859
  Ewald energy   TEWEN  =    -29443.85878275
  -Hartree energ DENC   =    -11539.37006233
  -exchange      EXHF   =         0.00000000
  -V(xc)+E(xc)   XCENC  =      1249.90371173
  PAW double counting   =     35803.46291881   -35203.47792083
  entropy T*S    EENTRO =        -0.00000001
  eigenvalues    EBANDS =     -2745.61905382
  atomic energy  EATOM  =     40341.65184589
  Solvation  Ediel_sol  =         0.00000000
  ---------------------------------------------------
  free energy    TOTEN  =      -208.94722471 eV

  energy without entropy =     -208.94722470  energy(sigma->0) =     -208.94722471


--------------------------------------------------------------------------------------------------------




--------------------------------------- Iteration      1(   9)  ---------------------------------------


    POTLOK:  cpu time      0.1767: real time      0.1768
    SETDIJ:  cpu time      0.6763: real time      0.6762
     EDDAV:  cpu time     40.3368: real time     40.3374
       DOS:  cpu time      0.0018: real time      0.0019
    CHARGE:  cpu time      1.2865: real time      1.2866
    MIXING:  cpu time      0.0063: real time      0.0063
    --------------------------------------------
      LOOP:  cpu time     42.4843: real time     42.4852

 eigenvalue-minimisations  :  7424
 total energy-change (2. order) : 0.7881404E-01  (-0.6259594E-01)
 number of electron     384.0000008 magnetization 
 augmentation part       95.0304680 magnetization 

 Broyden mixing:
  rms(total) = 0.14939E+00    rms(broyden)= 0.14937E+00
  rms(prec ) = 0.17799E+00
  weight for this iteration     100.00

 eigenvalues of (default mixing * dielectric matrix)
  average eigenvalue GAMMA=   1.3154
  2.4699  1.1268  0.8325  0.8325

 Free energy of the ion-electron system (eV)
  ---------------------------------------------------
  alpha Z        PSCENC =      1328.36011859
  Ewald energy   TEWEN  =    -29443.85878275
  -Hartree energ DENC   =    -11567.04000411
  -exchange      EXHF   =         0.00000000
  -V(xc)+E(xc)   XCENC  =      1251.70418501
  PAW double counting   =     36184.48215507   -35579.34898446
  entropy T*S    EENTRO =        -0.00000000
  eigenvalues    EBANDS =     -2724.81894393
  atomic energy  EATOM  =     40341.65184589
  Solvation  Ediel_sol  =         0.00000000
  ---------------------------------------------------
  free energy    TOTEN  =      -208.86841068 eV

  energy without entropy =     -208.86841068  energy(sigma->0) =     -208.86841068


--------------------------------------------------------------------------------------------------------




--------------------------------------- Iteration      1(  10)  ---------------------------------------


    POTLOK:  cpu time      0.1761: real time      0.1762
    SETDIJ:  cpu time      0.6694: real time      0.6707
     EDDAV:  cpu time     38.1429: real time     38.1550
       DOS:  cpu time      0.0017: real time      0.0018
    CHARGE:  cpu time      1.2794: real time      1.2794
    MIXING:  cpu time      0.0069: real time      0.0069
    --------------------------------------------
      LOOP:  cpu time     40.2764: real time     40.2901

 eigenvalue-minimisations  :  6928
 total energy-change (2. order) : 0.1213945E-01  (-0.1784435E-01)
 number of electron     384.0000008 magnetization 
 augmentation part       95.0349964 magnetization 

 Broyden mixing:
  rms(total) = 0.37874E-01    rms(broyden)= 0.37855E-01
  rms(prec ) = 0.39616E-01
  weight for this iteration     100.00

 eigenvalues of (default mixing * dielectric matrix)
  average eigenvalue GAMMA=   1.1678
  2.4193  1.0565  0.8306  0.8306  0.7018

 Free energy of the ion-electron system (eV)
  ---------------------------------------------------
  alpha Z        PSCENC =      1328.36011859
  Ewald energy   TEWEN  =    -29443.85878275
  -Hartree energ DENC   =    -11558.88756230
  -exchange      EXHF   =         0.00000000
  -V(xc)+E(xc)   XCENC  =      1251.40457956
  PAW double counting   =     36311.01790762   -35705.54892455
  entropy T*S    EENTRO =        -0.00000000
  eigenvalues    EBANDS =     -2732.99545330
  atomic energy  EATOM  =     40341.65184589
  Solvation  Ediel_sol  =         0.00000000
  ---------------------------------------------------
  free energy    TOTEN  =      -208.85627123 eV

  energy without entropy =     -208.85627123  energy(sigma->0) =     -208.85627123


--------------------------------------------------------------------------------------------------------




--------------------------------------- Iteration      1(  11)  ---------------------------------------


    POTLOK:  cpu time      0.1764: real time      0.1764
    SETDIJ:  cpu time      0.6676: real time      0.6685
     EDDAV:  cpu time     40.0687: real time     40.0685
       DOS:  cpu time      0.0015: real time      0.0016
    CHARGE:  cpu time      1.2808: real time      1.2809
    MIXING:  cpu time      0.0069: real time      0.0069
    --------------------------------------------
      LOOP:  cpu time     42.2019: real time     42.2028

 eigenvalue-minimisations  :  7384
 total energy-change (2. order) :-0.2438177E-02  (-0.2327952E-02)
 number of electron     384.0000008 magnetization 
 augmentation part       95.0451508 magnetization 

 Broyden mixing:
  rms(total) = 0.33733E-01    rms(broyden)= 0.33730E-01
  rms(prec ) = 0.36190E-01
  weight for this iteration     100.00

 eigenvalues of (default mixing * dielectric matrix)
  average eigenvalue GAMMA=   1.3539
  2.2126  1.5469  1.5469  0.8289  0.8289  1.1592

 Free energy of the ion-electron system (eV)
  ---------------------------------------------------
  alpha Z        PSCENC =      1328.36011859
  Ewald energy   TEWEN  =    -29443.85878275
  -Hartree energ DENC   =    -11558.75529279
  -exchange      EXHF   =         0.00000000
  -V(xc)+E(xc)   XCENC  =      1251.41390680
  PAW double counting   =     36287.56757861   -35682.52147131
  entropy T*S    EENTRO =        -0.00000000
  eigenvalues    EBANDS =     -2732.71661246
  atomic energy  EATOM  =     40341.65184589
  Solvation  Ediel_sol  =         0.00000000
  ---------------------------------------------------
  free energy    TOTEN  =      -208.85870941 eV

  energy without entropy =     -208.85870941  energy(sigma->0) =     -208.85870941


--------------------------------------------------------------------------------------------------------




--------------------------------------- Iteration      1(  12)  ---------------------------------------


    POTLOK:  cpu time      0.1764: real time      0.1766
    SETDIJ:  cpu time      0.6694: real time      0.6693
     EDDAV:  cpu time     41.6806: real time     41.6809
       DOS:  cpu time      0.0013: real time      0.0014
    CHARGE:  cpu time      1.2823: real time      1.2826
    MIXING:  cpu time      0.0069: real time      0.0069
    --------------------------------------------
      LOOP:  cpu time     43.8169: real time     43.8178

 eigenvalue-minimisations  :  7776
 total energy-change (2. order) :-0.8679829E-03  (-0.7709484E-03)
 number of electron     384.0000008 magnetization 
 augmentation part       95.0171889 magnetization 

 Broyden mixing:
  rms(total) = 0.16316E-01    rms(broyden)= 0.16311E-01
  rms(prec ) = 0.19238E-01
  weight for this iteration     100.00

 eigenvalues of (default mixing * dielectric matrix)
  average eigenvalue GAMMA=   1.3982
  2.4779  2.4779  0.8126  0.8126  1.1142  1.1142  0.9780

 Free energy of the ion-electron system (eV)
  ---------------------------------------------------
  alpha Z        PSCENC =      1328.36011859
  Ewald energy   TEWEN  =    -29443.85878275
  -Hartree energ DENC   =    -11559.73331545
  -exchange      EXHF   =         0.00000000
  -V(xc)+E(xc)   XCENC  =      1251.51966382
  PAW double counting   =     36263.84185093   -35659.57574000
  entropy T*S    EENTRO =        -0.00000000
  eigenvalues    EBANDS =     -2731.06521844
  atomic energy  EATOM  =     40341.65184589
  Solvation  Ediel_sol  =         0.00000000
  ---------------------------------------------------
  free energy    TOTEN  =      -208.85957739 eV

  energy without entropy =     -208.85957739  energy(sigma->0) =     -208.85957739


--------------------------------------------------------------------------------------------------------




--------------------------------------- Iteration      1(  13)  ---------------------------------------


    POTLOK:  cpu time      0.1755: real time      0.1759
    SETDIJ:  cpu time      0.6721: real time      0.6722
     EDDAV:  cpu time     35.7958: real time     35.7977
       DOS:  cpu time      0.0021: real time      0.0022
    CHARGE:  cpu time      1.2808: real time      1.2808
    MIXING:  cpu time      0.0073: real time      0.0073
    --------------------------------------------
      LOOP:  cpu time     37.9335: real time     37.9359

 eigenvalue-minimisations  :  6352
 total energy-change (2. order) :-0.3734822E-04  (-0.7379962E-04)
 number of electron     384.0000008 magnetization 
 augmentation part       95.0159370 magnetization 

 Broyden mixing:
  rms(total) = 0.98203E-02    rms(broyden)= 0.98203E-02
  rms(prec ) = 0.11275E-01
  weight for this iteration     100.00

 eigenvalues of (default mixing * dielectric matrix)
  average eigenvalue GAMMA=   1.3789
  2.7224  2.4417  1.1588  1.0060  0.8298  0.8298  1.0214  1.0214

 Free energy of the ion-electron system (eV)
  ---------------------------------------------------
  alpha Z        PSCENC =      1328.36011859
  Ewald energy   TEWEN  =    -29443.85878275
  -Hartree energ DENC   =    -11559.29735586
  -exchange      EXHF   =         0.00000000
  -V(xc)+E(xc)   XCENC  =      1251.51100901
  PAW double counting   =     36253.82996688   -35649.92711570
  entropy T*S    EENTRO =        -0.00000000
  eigenvalues    EBANDS =     -2731.12930081
  atomic energy  EATOM  =     40341.65184589
  Solvation  Ediel_sol  =         0.00000000
  ---------------------------------------------------
  free energy    TOTEN  =      -208.85961474 eV

  energy without entropy =     -208.85961474  energy(sigma->0) =     -208.85961474


--------------------------------------------------------------------------------------------------------




--------------------------------------- Iteration      1(  14)  ---------------------------------------


    POTLOK:  cpu time      0.1765: real time      0.1766
    SETDIJ:  cpu time      0.6718: real time      0.6734
     EDDAV:  cpu time     38.0993: real time     38.1235
       DOS:  cpu time      0.0019: real time      0.0020
    CHARGE:  cpu time      1.2812: real time      1.2819
    MIXING:  cpu time      0.0074: real time      0.0074
    --------------------------------------------
      LOOP:  cpu time     40.2382: real time     40.2648

 eigenvalue-minimisations  :  6920
 total energy-change (2. order) : 0.6630562E-04  (-0.2884624E-04)
 number of electron     384.0000008 magnetization 
 augmentation part       95.0191744 magnetization 

 Broyden mixing:
  rms(total) = 0.49137E-02    rms(broyden)= 0.49129E-02
  rms(prec ) = 0.56474E-02
  weight for this iteration     100.00

 eigenvalues of (default mixing * dielectric matrix)
  average eigenvalue GAMMA=   1.3028
  2.6815  2.4064  1.2283  1.0906  1.0906  0.9867  0.8334  0.8334  0.5739

 Free energy of the ion-electron system (eV)
  ---------------------------------------------------
  alpha Z        PSCENC =      1328.36011859
  Ewald energy   TEWEN  =    -29443.85878275
  -Hartree energ DENC   =    -11559.17959536
  -exchange      EXHF   =         0.00000000
  -V(xc)+E(xc)   XCENC  =      1251.50113694
  PAW double counting   =     36250.36725972   -35646.45939688
  entropy T*S    EENTRO =        -0.00000000
  eigenvalues    EBANDS =     -2731.24213458
  atomic energy  EATOM  =     40341.65184589
  Solvation  Ediel_sol  =         0.00000000
  ---------------------------------------------------
  free energy    TOTEN  =      -208.85954843 eV

  energy without entropy =     -208.85954843  energy(sigma->0) =     -208.85954843


--------------------------------------------------------------------------------------------------------




--------------------------------------- Iteration      1(  15)  ---------------------------------------


    POTLOK:  cpu time      0.1756: real time      0.1757
    SETDIJ:  cpu time      0.6564: real time      0.6566
     EDDAV:  cpu time     42.9046: real time     42.9039
       DOS:  cpu time      0.0015: real time      0.0015
    CHARGE:  cpu time      1.2821: real time      1.2823
    MIXING:  cpu time      0.0076: real time      0.0076
    --------------------------------------------
      LOOP:  cpu time     45.0278: real time     45.0275

 eigenvalue-minimisations  :  8088
 total energy-change (2. order) : 0.1811021E-04  (-0.3982532E-05)
 number of electron     384.0000008 magnetization 
 augmentation part       95.0208928 magnetization 

 Broyden mixing:
  rms(total) = 0.31748E-02    rms(broyden)= 0.31746E-02
  rms(prec ) = 0.35449E-02
  weight for this iteration     100.00

 eigenvalues of (default mixing * dielectric matrix)
  average eigenvalue GAMMA=   1.3360
  2.7020  2.4189  1.2840  1.2840  1.1483  0.9679  0.8260  0.8260  0.9514  0.9514

 Free energy of the ion-electron system (eV)
  ---------------------------------------------------
  alpha Z        PSCENC =      1328.36011859
  Ewald energy   TEWEN  =    -29443.85878275
  -Hartree energ DENC   =    -11559.11565260
  -exchange      EXHF   =         0.00000000
  -V(xc)+E(xc)   XCENC  =      1251.49596714
  PAW double counting   =     36249.75945572   -35645.83290188
  entropy T*S    EENTRO =        -0.00000000
  eigenvalues    EBANDS =     -2731.31958044
  atomic energy  EATOM  =     40341.65184589
  Solvation  Ediel_sol  =         0.00000000
  ---------------------------------------------------
  free energy    TOTEN  =      -208.85953032 eV

  energy without entropy =     -208.85953032  energy(sigma->0) =     -208.85953032


--------------------------------------------------------------------------------------------------------




--------------------------------------- Iteration      1(  16)  ---------------------------------------


    POTLOK:  cpu time      0.1762: real time      0.1766
    SETDIJ:  cpu time      0.6747: real time      0.6747
     EDDAV:  cpu time     36.0895: real time     36.0894
       DOS:  cpu time      0.0020: real time      0.0021
    CHARGE:  cpu time      1.2811: real time      1.2812
    MIXING:  cpu time      0.0076: real time      0.0076
    --------------------------------------------
      LOOP:  cpu time     38.2311: real time     38.2316

 eigenvalue-minimisations  :  6432
[...]
    168       4.2926      2.00000
    169       4.6442      2.00000
    170       4.6452      2.00000
    171       4.6651      2.00000
    172       4.6651      2.00000
    173       4.8140      2.00000
    174       4.8161      2.00000
    175       4.8302      2.00000
    176       4.8302      2.00000
    177       4.9481      2.00000
    178       4.9481      2.00000
    179       4.9670      2.00000
    180       4.9697      2.00000
    181       5.3582      2.00000
    182       5.3696      2.00000
    183       5.3696      2.00000
    184       5.3909      2.00000
    185       5.8337      2.00000
    186       5.8337      2.00000
    187       5.8503      2.00000
    188       5.8696      2.00000
    189       5.9415      2.00000
    190       5.9415      2.00000
    191       5.9548      2.00000
    192       5.9702      2.00000
    193       7.9859      0.00000
    194       8.0129      0.00000
    195       8.0129      0.00000
    196       8.0468      0.00000
    197       8.7429      0.00000
    198       8.7732      0.00000
    199       8.7732      0.00000
    200       8.8058      0.00000
    201       9.2138      0.00000
    202       9.2237      0.00000
    203       9.2435      0.00000
    204       9.2435      0.00000
    205       9.5229      0.00000
    206       9.5383      0.00000
    207       9.5646      0.00000
    208       9.5646      0.00000
    209       9.7500      0.00000
    210       9.7500      0.00000
    211       9.7823      0.00000
    212       9.8182      0.00000
    213       9.8184      0.00000
    214       9.8233      0.00000
    215       9.8233      0.00000
    216       9.8456      0.00000
    217      10.6544      0.00000
    218      10.6544      0.00000
    219      10.6730      0.00000
    220      10.6897      0.00000
    221      10.7215      0.00000
    222      10.7215      0.00000
    223      10.7217      0.00000
    224      10.7294      0.00000
    225      11.2990      0.00000
    226      11.3169      0.00000
    227      11.3169      0.00000
    228      11.3779      0.00000
    229      11.3900      0.00000
    230      11.3900      0.00000
    231      11.4148      0.00000
    232      11.4160      0.00000


--------------------------------------------------------------------------------------------------------


 soft charge-density along one line, spin component           1
         0         1         2         3         4         5         6         7         8         9
 total charge-density along one line
 
 pseudopotential strength for first ion, spin component:           1
-17.712   0.001   0.001   0.001   0.000   3.938  -0.000  -0.000
  0.001 -17.697   0.001  -0.001  -0.001  -0.000   3.932  -0.000
  0.001   0.001 -17.721   0.001   0.000  -0.000  -0.000   3.945
  0.001  -0.001   0.001 -17.697   0.001  -0.000   0.000  -0.000
  0.000  -0.001   0.000   0.001 -17.694  -0.000   0.001  -0.000
  3.938  -0.000  -0.000  -0.000  -0.000   5.808   0.000   0.000
 -0.000   3.932  -0.000   0.000   0.001   0.000   5.810   0.000
 -0.000  -0.000   3.945  -0.000  -0.000   0.000   0.000   5.808
 -0.000   0.000  -0.000   3.932  -0.001   0.000  -0.000   0.000
 -0.000   0.001  -0.000  -0.001   3.929  -0.000  -0.000   0.000
 -0.000   0.000   0.004   0.000   0.000   0.000  -0.000   0.004
  0.000  -0.000  -0.005  -0.000   0.000  -0.000   0.000  -0.005
  0.000  -0.017  -0.000  -0.000  -0.000   0.000   0.003   0.000
 -0.000   0.000  -0.020   0.000   0.000  -0.000   0.000   0.003
  0.000  -0.000  -0.000  -0.017   0.000   0.000  -0.000   0.000
  0.000  -0.028  -0.000  -0.000  -0.000   0.000   0.003   0.000
 -0.000   0.000  -0.031   0.000   0.000  -0.000   0.000  -0.000
  0.000  -0.000  -0.000  -0.028   0.000   0.000  -0.000   0.000
 total augmentation occupancy for first ion, spin component:           1
  1.999   0.000   0.000   0.000   0.000  -0.005   0.000   0.000   0.000   0.000  -0.000  -0.000  -0.000  -0.000  -0.000   0.000
  0.000   1.998  -0.000  -0.000   0.000   0.000  -0.006   0.000  -0.000  -0.000   0.000   0.000   0.035  -0.000  -0.000  -0.012
  0.000  -0.000   2.000  -0.000  -0.000   0.000   0.000  -0.002   0.000   0.000   0.001   0.001   0.000   0.032   0.000  -0.000
  0.000  -0.000  -0.000   1.998  -0.000   0.000  -0.000   0.000  -0.006   0.000   0.000   0.000  -0.000  -0.000   0.035   0.000
  0.000   0.000  -0.000  -0.000   1.998   0.000  -0.000   0.000   0.000  -0.007   0.000   0.000   0.000   0.000  -0.000  -0.000
 -0.005   0.000   0.000   0.000   0.000   0.020   0.000   0.000   0.000   0.000  -0.000  -0.000   0.002  -0.001   0.002  -0.000
  0.000  -0.006   0.000  -0.000  -0.000   0.000   0.044   0.000  -0.001  -0.000   0.000   0.001  -0.079   0.000  -0.002   0.011
  0.000   0.000  -0.002   0.000   0.000   0.000   0.000   0.015   0.000  -0.000   0.012  -0.005  -0.001   0.007  -0.001   0.000
  0.000  -0.000   0.000  -0.006   0.000   0.000  -0.001   0.000   0.044   0.000   0.000   0.001  -0.002   0.000  -0.079   0.000
  0.000  -0.000   0.000   0.000  -0.007   0.000  -0.000  -0.000   0.000   0.051   0.000  -0.000   0.001   0.000  -0.001  -0.000
 -0.000   0.000   0.001   0.000   0.000  -0.000   0.000   0.012   0.000   0.000   2.045  -0.027  -0.000   0.168  -0.000  -0.000
 -0.000   0.000   0.001   0.000   0.000  -0.000   0.001  -0.005   0.001  -0.000  -0.027   0.030   0.001  -0.077   0.001   0.000
 -0.000   0.035   0.000  -0.000   0.000   0.002  -0.079  -0.001  -0.002   0.001  -0.000   0.001   0.882   0.006  -0.006  -0.079
 -0.000  -0.000   0.032  -0.000   0.000  -0.001   0.000   0.007   0.000   0.000   0.168  -0.077   0.006   0.951   0.006  -0.001
 -0.000  -0.000   0.000   0.035  -0.000   0.002  -0.002  -0.001  -0.079  -0.001  -0.000   0.001  -0.006   0.006   0.882   0.000
  0.000  -0.012  -0.000   0.000  -0.000  -0.000   0.011   0.000   0.000  -0.000  -0.000   0.000  -0.079  -0.001   0.000   0.009
  0.000   0.000  -0.019   0.000  -0.000   0.000   0.000  -0.000   0.000   0.000  -0.012   0.008  -0.001  -0.079  -0.001   0.000
  0.000   0.000  -0.000  -0.012   0.000  -0.000   0.000   0.000   0.011   0.000  -0.000   0.000   0.000  -0.001  -0.079  -0.000


------------------------ aborting loop because EDIFF is reached ----------------------------------------


    CHARGE:  cpu time      1.2833: real time      1.2833
    FORLOC:  cpu time      0.0161: real time      0.0161
    FORNL :  cpu time      9.2388: real time      9.2388
    STRESS:  cpu time     19.9005: real time     19.9004
    FORCOR:  cpu time      0.1782: real time      0.1784
    FORHAR:  cpu time      0.0592: real time      0.0592
    MIXING:  cpu time      0.0055: real time      0.0055
    OFIELD:  cpu time      0.0001: real time      0.0001

  FORCE on cell =-STRESS in cart. coord.  units (eV):
  Direction    XX          YY          ZZ          XY          YZ          ZX
  --------------------------------------------------------------------------------------
  Alpha Z  1328.23289  1328.23289  1328.23289
  Ewald   -8068.91160 -8068.91160-13304.62223    -0.00000    -0.00000    -0.00000
  Hartree  5390.89686  5390.89686   778.22739    -0.00000    -0.00000    -0.00000
  E(xc)   -1825.77887 -1825.77887 -1827.44677    -0.00000    -0.00000    -0.00000
  Local   -5524.15264 -5524.15264  4333.26238    -0.00000    -0.00000     0.00000
  n-local  1576.66607  1584.35690  1586.62403     0.48648    -0.05643     0.11331
  augment  2176.41300  2176.41300  2161.13074     0.00000     0.00000     0.00000
  Kinetic  4938.48025  4947.09733  4944.59162    -3.52151     0.45473    -0.53027
  Fock        0.00000     0.00000     0.00000     0.00000     0.00000     0.00000
  -------------------------------------------------------------------------------------
  Total      -0.00010    -0.00010     0.00004     0.00000     0.00000     0.00000
  in kB      -0.00020    -0.00020     0.00008     0.00000     0.00000     0.00000
  external pressure =       -0.00 kB  Pullay stress =        0.00 kB


 VOLUME and BASIS-vectors are now :
 -----------------------------------------------------------------------------
  energy-cutoff  :      520.00
  volume of cell :      760.53
      direct lattice vectors                 reciprocal lattice vectors
     7.840159049  0.000000000  0.000000000     0.127548433  0.000000000 -0.000000000
     0.000000000  7.840159049  0.000000000     0.000000000  0.127548433  0.000000000
     0.000000000  0.000000000 12.372701806    -0.000000000  0.000000000  0.080823091

  length of vectors
     7.840159049  7.840159049 12.372701806     0.127548433  0.127548433  0.080823091


 FORCES acting on ions
    electron-ion (+dipol)            ewald-force                    non-local-force                 convergence-correction
 -----------------------------------------------------------------------------------------------
   -.604E+01 -.604E+01 -.438E+03   0.593E+01 0.593E+01 0.448E+03   0.106E+00 0.106E+00 -.109E+02   -.192E-06 -.192E-06 0.932E-06
   0.604E+01 -.604E+01 -.438E+03   -.593E+01 0.593E+01 0.448E+03   -.106E+00 0.106E+00 -.109E+02   0.192E-06 -.192E-06 0.932E-06
   -.604E+01 0.604E+01 -.438E+03   0.593E+01 -.593E+01 0.448E+03   0.106E+00 -.106E+00 -.109E+02   -.192E-06 0.192E-06 0.932E-06
   0.604E+01 0.604E+01 -.438E+03   -.593E+01 -.593E+01 0.448E+03   -.106E+00 -.106E+00 -.109E+02   0.192E-06 0.192E-06 0.932E-06
   -.108E-12 0.575E-12 0.469E+03   0.141E-10 0.142E-10 -.479E+03   0.124E-17 0.474E-18 0.107E+02   -.891E-13 0.163E-12 -.373E-06
   0.733E-12 -.291E-12 0.467E+03   0.142E-10 0.230E-12 -.478E+03   0.165E-17 -.525E-18 0.107E+02   -.193E-13 0.421E-14 -.424E-06
   -.897E-13 0.167E-11 0.467E+03   0.171E-12 0.143E-10 -.478E+03   0.511E-18 0.496E-18 0.107E+02   0.128E-11 -.693E-12 -.424E-06
   0.719E-12 -.458E-11 0.467E+03   0.227E-12 0.187E-12 -.478E+03   0.753E-18 0.634E-18 0.108E+02   -.140E-11 0.165E-13 -.477E-06
   -.259E-13 -.515E-12 -.469E+03   0.142E-10 0.142E-10 0.479E+03   0.492E-18 0.877E-18 -.107E+02   -.151E-11 -.175E-11 0.373E-06
   0.850E-12 0.184E-12 -.467E+03   0.143E-10 0.234E-12 0.478E+03   -.167E-17 -.397E-18 -.107E+02   0.131E-11 -.300E-11 0.424E-06
   -.924E-14 0.861E-13 -.467E+03   0.256E-12 0.144E-10 0.478E+03   -.250E-18 -.467E-18 -.107E+02   -.340E-12 0.189E-11 0.424E-06
   0.786E-12 -.375E-11 -.467E+03   0.369E-12 0.270E-12 0.478E+03   0.935E-19 -.679E-18 -.108E+02   0.118E-12 0.251E-11 0.477E-06
   -.604E+01 -.604E+01 0.438E+03   0.593E+01 0.593E+01 -.448E+03   0.106E+00 0.106E+00 0.109E+02   -.192E-06 -.192E-06 -.932E-06
   0.604E+01 -.604E+01 0.438E+03   -.593E+01 0.593E+01 -.448E+03   -.106E+00 0.106E+00 0.109E+02   0.192E-06 -.192E-06 -.932E-06
   -.604E+01 0.604E+01 0.438E+03   0.593E+01 -.593E+01 -.448E+03   0.106E+00 -.106E+00 0.109E+02   -.192E-06 0.192E-06 -.932E-06
   0.604E+01 0.604E+01 0.438E+03   -.593E+01 -.593E+01 -.448E+03   -.106E+00 -.106E+00 0.109E+02   0.192E-06 0.192E-06 -.932E-06
   0.565E-13 0.498E-13 0.214E-12   0.597E-12 0.711E-13 0.675E-13   -.137E-28 -.633E-27 -.179E-27   0.217E-11 -.626E-12 0.108E-11
   0.284E-13 0.640E-13 -.116E-12   0.284E-13 0.512E-12 0.639E-13   -.414E-27 -.356E-28 -.316E-27   0.156E-12 0.452E-12 0.199E-12
   0.560E-13 -.516E-12 0.206E-12   0.853E-13 0.000E+00 0.213E-13   0.172E-28 0.233E-27 -.201E-26   -.160E-12 0.571E-12 0.591E-12
   -.209E+01 -.209E+01 -.375E-07   0.210E+01 0.210E+01 -.990E-14   -.105E-01 -.105E-01 0.449E-20   -.770E-07 -.770E-07 -.251E-13
   0.209E+01 -.209E+01 -.123E-10   -.210E+01 0.210E+01 0.221E-13   0.105E-01 -.105E-01 -.827E-20   0.770E-07 -.770E-07 0.294E-12
   -.209E+01 0.209E+01 0.302E-11   0.210E+01 -.210E+01 0.221E-13   -.105E-01 0.105E-01 0.799E-20   -.770E-07 0.770E-07 -.581E-12
   0.209E+01 0.209E+01 0.375E-07   -.210E+01 -.210E+01 0.221E-13   0.105E-01 0.105E-01 -.394E-20   0.770E-07 0.770E-07 -.759E-12
   0.565E-13 -.227E+01 0.855E+01   0.200E-11 0.226E+01 -.869E+01   0.308E-18 0.208E-02 0.147E+00   -.379E-12 0.801E-07 0.253E-06
   0.313E-12 -.166E+01 0.389E+01   0.205E-11 0.164E+01 -.374E+01   -.448E-18 0.156E-01 -.143E+00   0.292E-12 0.114E-06 -.573E-08
   0.698E-13 0.227E+01 0.855E+01   0.193E-11 -.226E+01 -.869E+01   0.154E-18 -.208E-02 0.147E+00   0.300E-13 -.801E-07 0.253E-06
   0.300E-12 0.166E+01 0.389E+01   0.206E-11 -.164E+01 -.374E+01   -.497E-18 -.156E-01 -.143E+00   -.114E-12 -.114E-06 -.573E-08
   -.227E+01 0.997E-12 0.855E+01   0.226E+01 0.205E-11 -.869E+01   0.208E-02 -.111E-18 0.147E+00   0.801E-07 0.282E-12 0.253E-06
   0.227E+01 -.166E-11 0.855E+01   -.226E+01 0.203E-11 -.869E+01   -.208E-02 -.414E-18 0.147E+00   -.801E-07 0.189E-12 0.253E-06
   -.166E+01 0.330E-12 0.389E+01   0.164E+01 0.202E-11 -.374E+01   0.156E-01 0.320E-18 -.143E+00   0.114E-06 0.245E-13 -.573E-08
   0.166E+01 -.342E-11 0.389E+01   -.164E+01 0.202E-11 -.374E+01   -.156E-01 0.491E-18 -.143E+00   -.114E-06 -.809E-12 -.573E-08
   -.227E+01 0.175E-11 -.855E+01   0.226E+01 0.204E-11 0.869E+01   0.208E-02 -.435E-18 -.147E+00   0.801E-07 -.104E-11 -.253E-06
   0.227E+01 -.846E-12 -.855E+01   -.226E+01 0.202E-11 0.869E+01   -.208E-02 0.904E-19 -.147E+00   -.801E-07 -.106E-11 -.253E-06
   -.166E+01 0.409E-11 -.389E+01   0.164E+01 0.201E-11 0.374E+01   0.156E-01 0.345E-18 0.143E+00   0.114E-06 0.112E-11 0.573E-08
   0.166E+01 0.788E-11 -.389E+01   -.164E+01 0.202E-11 0.374E+01   -.156E-01 -.286E-18 0.143E+00   -.114E-06 0.797E-12 0.573E-08
   0.939E-13 -.227E+01 -.855E+01   0.200E-11 0.226E+01 0.869E+01   -.170E-18 0.208E-02 -.147E+00   -.122E-11 0.801E-07 -.253E-06
   0.341E-12 -.166E+01 -.389E+01   0.205E-11 0.164E+01 0.374E+01   0.587E-18 0.156E-01 0.143E+00   0.116E-11 0.114E-06 0.573E-08
   0.967E-13 0.227E+01 -.855E+01   0.202E-11 -.226E+01 0.869E+01   -.695E-19 -.208E-02 -.147E+00   -.116E-11 -.801E-07 -.253E-06
   0.330E-12 0.166E+01 -.389E+01   0.209E-11 -.164E+01 0.374E+01   0.206E-18 -.156E-01 0.143E+00   0.110E-11 -.114E-06 0.573E-08
   0.310E-13 0.216E-13 -.121E-12   0.625E-12 0.654E-12 0.107E-13   -.372E-27 0.147E-26 -.689E-26   -.228E-11 -.523E-12 0.397E-12
 -----------------------------------------------------------------------------------------------
   0.732E-11 -.171E-10 -.228E-09   0.853E-13 -.199E-12 -.259E-12   -.118E-17 -.139E-16 -.705E-14   -.591E-12 0.417E-11 0.449E-11
 
 
 POSITION                                       TOTAL-FORCE (eV/Angst)
 -----------------------------------------------------------------------------------
      1.95150      1.95150     10.56977        -0.000002     -0.000002      0.000005
      5.88866      1.95150     10.56977         0.000002     -0.000002      0.000005
      1.95150      5.88866     10.56977        -0.000002      0.000002      0.000005
      5.88866      5.88866     10.56977         0.000002      0.000002      0.000005
      0.00000      0.00000      8.00164         0.000000     -0.000000      0.000006
      3.92008      0.00000      8.01152         0.000000     -0.000000      0.000006
      0.00000      3.92008      8.01152         0.000000     -0.000000      0.000006
      3.92008      3.92008      8.02267         0.000000     -0.000000      0.000003
      0.00000      0.00000      4.37106        -0.000000     -0.000000     -0.000006
      3.92008      0.00000      4.36118        -0.000000     -0.000000     -0.000006
      0.00000      3.92008      4.36118        -0.000000     -0.000000     -0.000006
      3.92008      3.92008      4.35003        -0.000000     -0.000000     -0.000003
      1.95150      1.95150      1.80293        -0.000002     -0.000002     -0.000005
      5.88866      1.95150      1.80293         0.000002     -0.000002     -0.000005
      1.95150      5.88866      1.80293        -0.000002      0.000002     -0.000005
      5.88866      5.88866      1.80293         0.000002      0.000002     -0.000005
      3.92008      0.00000      0.00000        -0.000000     -0.000000     -0.000000
      0.00000      3.92008      0.00000         0.000000     -0.000000     -0.000000
      3.92008      3.92008      0.00000        -0.000000     -0.000000     -0.000000
      1.96112      1.96112      6.18635        -0.000006     -0.000006     -0.000000
      5.87904      1.96112      6.18635         0.000006     -0.000006     -0.000000
      1.96112      5.87904      6.18635        -0.000006      0.000006     -0.000000
      5.87904      5.87904      6.18635         0.000006      0.000006     -0.000000
      0.00000      1.95640      9.28538         0.000000      0.000003      0.000007
      3.92008      1.95745      9.29677         0.000000      0.000003      0.000001
      0.00000      5.88376      9.28538         0.000000     -0.000003      0.000007
      3.92008      5.88271      9.29677         0.000000     -0.000003      0.000001
      1.95640      0.00000      9.28538         0.000003     -0.000000      0.000007
      5.88376      0.00000      9.28538        -0.000003     -0.000000      0.000007
      1.95745      3.92008      9.29677         0.000003     -0.000000      0.000001
      5.88271      3.92008      9.29677        -0.000003     -0.000000      0.000001
      1.95640      0.00000      3.08732         0.000003     -0.000000     -0.000007
      5.88376      0.00000      3.08732        -0.000003     -0.000000     -0.000007
      1.95745      3.92008      3.07593         0.000003     -0.000000     -0.000001
      5.88271      3.92008      3.07593        -0.000003     -0.000000     -0.000001
      0.00000      1.95640      3.08732        -0.000000      0.000003     -0.000007
      3.92008      1.95745      3.07593        -0.000000      0.000003     -0.000001
      0.00000      5.88376      3.08732        -0.000000     -0.000003     -0.000007
      3.92008      5.88271      3.07593        -0.000000     -0.000003     -0.000001
      0.00000      0.00000      0.00000         0.000000     -0.000000     -0.000000
 -----------------------------------------------------------------------------------
    total drift:                                0.000000     -0.000000     -0.000000


--------------------------------------------------------------------------------------------------------



  FREE ENERGIE OF THE ION-ELECTRON SYSTEM (eV)
  ---------------------------------------------------
  free  energy   TOTEN  =      -208.85952319 eV

  energy  without entropy=     -208.85952319  energy(sigma->0) =     -208.85952319
 
 d Force =-0.7658896E-12[-0.211E-11, 0.582E-12]  d Energy =-0.3568857E-08 0.357E-08
 d Force =-0.1206705E-03[-0.121E-03,-0.121E-03]  d Ewald  = 0.3513391E-03-0.472E-03


--------------------------------------------------------------------------------------------------------


    POTLOK:  cpu time      0.8488: real time      0.8492


--------------------------------------------------------------------------------------------------------




--------------------------------------------------------------------------------------------------------


  
 reached required accuracy - stopping structural energy minimisation
     LOOP+:  cpu time    150.9161: real time    150.9544
    4ORBIT:  cpu time      0.0000: real time      0.0000

 total amount of memory used by VASP MPI-rank0    95129. kBytes
=======================================================================

   base      :      30000. kBytes
   nonl-proj :      17369. kBytes
   fftplans  :      13005. kBytes
   grid      :       8308. kBytes
   one-center:         77. kBytes
   wavefun   :      26370. kBytes
 
  
  
 General timing and accounting informations for this job:
 ========================================================
  
                  Total CPU time used (sec):     5623.936
                            User time (sec):     5605.518
                          System time (sec):       18.418
                         Elapsed time (sec):     5625.025
  
                   Maximum memory used (kb):      203232.
                   Average memory used (kb):          N/A
  
                          Minor page faults:        38221
                          Major page faults:            6
                 Voluntary context switches:          508
