 running   36 mpi-ranks, on    1 nodes
 distrk:  each k-point on   36 cores,    1 groups
 distr:  one band on    9 cores,    4 groups
 vasp.6.4.3 19Mar24 (build Apr 09 2025 20:43:19) complex                        
  
 POSCAR found type information on POSCAR BiSeO S 
 POSCAR found :  4 types and      40 ions
 scaLAPACK will be used
 -----------------------------------------------------------------------------
|                                                                             |
|               ----> ADVICE to this user running VASP <----                  |
|                                                                             |
|     You have a (more or less) 'large supercell' and for larger cells it     |
|     might be more efficient to use real-space projection operators.         |
|     Therefore, try LREAL= Auto in the INCAR file.                           |
|     Mind: For very accurate calculation, you might also keep the            |
|     reciprocal projection scheme (i.e. LREAL=.FALSE.).                      |
|                                                                             |
 -----------------------------------------------------------------------------

 LDA part: xc-table for (Slater+PW92), standard interpolation
 POSCAR, INCAR and KPOINTS ok, starting setup
 FFT: planning ... GRIDC
 FFT: planning ... GRID_SOFT
 FFT: planning ... GRID
 WAVECAR not read
 entering main loop
       N       E                     dE             d eps       ncg     rms          rms(c)
DAV:   1     0.562013749991E+04    0.56201E+04   -0.17563E+05  5568   0.196E+03
DAV:   2     0.956498770172E+03   -0.46636E+04   -0.45234E+04  5592   0.569E+02
DAV:   3    -0.112381337841E+03   -0.10689E+04   -0.99475E+03  6216   0.261E+02
DAV:   4    -0.237593775877E+03   -0.12521E+03   -0.12153E+03  6616   0.818E+01
DAV:   5    -0.243336442866E+03   -0.57427E+01   -0.56624E+01  6752   0.169E+01    0.342E+01
DAV:   6    -0.208960161179E+03    0.34376E+02   -0.14587E+02  7680   0.490E+01    0.136E+01
DAV:   7    -0.208805119911E+03    0.15504E+00   -0.29374E+01  6144   0.115E+01    0.811E+00
DAV:   8    -0.208947224715E+03   -0.14210E+00   -0.59262E+00  8000   0.490E+00    0.349E+00
DAV:   9    -0.208868410678E+03    0.78814E-01   -0.62596E-01  7424   0.253E+00    0.149E+00
DAV:  10    -0.208856271230E+03    0.12139E-01   -0.17844E-01  6928   0.137E+00    0.379E-01
DAV:  11    -0.208858709407E+03   -0.24382E-02   -0.23280E-02  7384   0.314E-01    0.337E-01
DAV:  12    -0.208859577390E+03   -0.86798E-03   -0.77095E-03  7776   0.194E-01    0.163E-01
DAV:  13    -0.208859614738E+03   -0.37348E-04   -0.73800E-04  6352   0.897E-02    0.982E-02
DAV:  14    -0.208859548433E+03    0.66306E-04   -0.28846E-04  6920   0.362E-02    0.491E-02
DAV:  15    -0.208859530322E+03    0.18110E-04   -0.39825E-05  8088   0.124E-02    0.317E-02
DAV:  16    -0.208859527310E+03    0.30122E-05   -0.34217E-06  6432   0.505E-03    0.235E-02
DAV:  17    -0.208859518683E+03    0.86266E-05   -0.54752E-05  7544   0.163E-02    0.142E-02
DAV:  18    -0.208859518227E+03    0.45632E-06   -0.58600E-06  6192   0.571E-03    0.780E-03
DAV:  19    -0.208859518329E+03   -0.10206E-06   -0.14627E-06  5800   0.238E-03    0.195E-03
DAV:  20    -0.208859518365E+03   -0.35311E-07   -0.14135E-07  6440   0.876E-04    0.767E-04
DAV:  21    -0.208859518499E+03   -0.13416E-06   -0.19944E-08  4256   0.436E-04    0.353E-04
DAV:  22    -0.208859518576E+03   -0.77109E-07   -0.98882E-09  3416   0.341E-04    0.343E-04
DAV:  23    -0.208859518579E+03   -0.33269E-08   -0.38690E-09  3360   0.238E-04
   1 F= -.20885952E+03 E0= -.20885952E+03  d E =-.208860E+03
 curvature:   0.00 expect dE= 0.000E+00 dE for cont linesearch  0.000E+00
 trial: gam= 0.00000 g(F)=  0.346E-08 g(S)=  0.399E-05 ort = 0.000E+00 (trialstep = 0.100E+01)
 search vector abs. value=  0.399E-05
 bond charge predicted
       N       E                     dE             d eps       ncg     rms          rms(c)
DAV:   1    -0.208859574454E+03   -0.55878E-04   -0.14132E-03  7496   0.170E-01    0.438E-02
DAV:   2    -0.208859533938E+03    0.40516E-04   -0.10899E-04  7192   0.427E-02    0.148E-02
DAV:   3    -0.208859527100E+03    0.68375E-05   -0.19813E-05  7656   0.235E-02    0.542E-03
DAV:   4    -0.208859524821E+03    0.22792E-05   -0.64014E-06  7480   0.981E-03    0.249E-03
DAV:   5    -0.208859524339E+03    0.48184E-06   -0.41204E-07  6984   0.176E-03    0.149E-03
DAV:   6    -0.208859523218E+03    0.11216E-05   -0.50166E-08  4760   0.622E-04    0.714E-04
DAV:   7    -0.208859522475E+03    0.74224E-06   -0.19824E-08  3696   0.680E-04    0.253E-04
DAV:   8    -0.208859522470E+03    0.52214E-08   -0.88604E-09  3232   0.394E-04
   2 F= -.20885952E+03 E0= -.20885952E+03  d E =-.389103E-05
 trial-energy change:   -0.000004  1 .order   -0.000001   -0.000004    0.000003
 step:   0.8891(harm=  0.6020)  dis= 0.00000  next Energy=  -208.859523 (dE=-0.403E-05)
 bond charge predicted
       N       E                     dE             d eps       ncg     rms          rms(c)
DAV:   1    -0.208859522887E+03   -0.41159E-06   -0.17602E-05  7504   0.190E-02    0.488E-03
DAV:   2    -0.208859522103E+03    0.78352E-06   -0.13523E-06  7184   0.477E-03    0.166E-03
DAV:   3    -0.208859521966E+03    0.13712E-06   -0.24669E-07  7448   0.263E-03    0.602E-04
DAV:   4    -0.208859522139E+03   -0.17266E-06   -0.71149E-08  5128   0.108E-03    0.284E-04
DAV:   5    -0.208859522194E+03   -0.55247E-07   -0.78246E-09  3144   0.291E-04    0.180E-04
DAV:   6    -0.208859522362E+03   -0.16769E-06   -0.22957E-09  3128   0.191E-04    0.508E-05
DAV:   7    -0.208859522401E+03   -0.39447E-07   -0.12659E-09  3120   0.107E-04    0.178E-05
DAV:   8    -0.208859522416E+03   -0.14373E-07   -0.43662E-10  3120   0.679E-05    0.862E-06
DAV:   9    -0.208859522416E+03   -0.49386E-09   -0.20656E-10  3120   0.468E-05
   3 F= -.20885952E+03 E0= -.20885952E+03  d E =-.383712E-05
 curvature:  -0.14 expect dE=-0.357E-06 dE for cont linesearch -0.150E-06
 ZBRENT: interpolating
 opt :   0.5890  next Energy=  -208.859523 (dE=-0.414E-05)
 bond charge predicted
       N       E                     dE             d eps       ncg     rms          rms(c)
DAV:   1    -0.208859525932E+03   -0.35162E-05   -0.12717E-04  7480   0.510E-02    0.131E-02
DAV:   2    -0.208859521367E+03    0.45649E-05   -0.97989E-06  7176   0.128E-02    0.444E-03
DAV:   3    -0.208859520564E+03    0.80329E-06   -0.17834E-06  7632   0.704E-03    0.163E-03
DAV:   4    -0.208859520991E+03   -0.42731E-06   -0.57592E-07  7296   0.294E-03    0.754E-04
DAV:   5    -0.208859521147E+03   -0.15629E-06   -0.33731E-08  4144   0.533E-04    0.453E-04
DAV:   6    -0.208859521513E+03   -0.36555E-06   -0.58894E-09  3096   0.285E-04    0.188E-04
DAV:   7    -0.208859521716E+03   -0.20273E-06   -0.39319E-09  3080   0.171E-04    0.668E-05
DAV:   8    -0.208859521726E+03   -0.10774E-07   -0.10232E-09  3048   0.122E-04    0.379E-05
DAV:   9    -0.208859521714E+03    0.12575E-07   -0.38519E-10  3048   0.828E-05    0.222E-05
DAV:  10    -0.208859521712E+03    0.18299E-08   -0.15843E-10  3048   0.500E-05
   4 F= -.20885952E+03 E0= -.20885952E+03  d E =-.313288E-05
 curvature:  -0.29 expect dE=-0.189E-06 dE for cont linesearch -0.154E-10
 trial: gam= 0.15750 g(F)=  0.568E-06 g(S)=  0.750E-07 ort = 0.144E-07 (trialstep = 0.918E+00)
 search vector abs. value=  0.746E-06
 bond charge predicted
       N       E                     dE             d eps       ncg     rms          rms(c)
DAV:   1    -0.208859523709E+03   -0.19957E-05   -0.20304E-04  7984   0.319E-02    0.609E-03
DAV:   2    -0.208859523437E+03    0.27224E-06   -0.36000E-06  7272   0.742E-03    0.233E-03
DAV:   3    -0.208859523296E+03    0.14105E-06   -0.60749E-07  7424   0.344E-03    0.672E-04
DAV:   4    -0.208859523030E+03    0.26655E-06   -0.99987E-08  6168   0.105E-03    0.378E-04
DAV:   5    -0.208859522829E+03    0.20086E-06   -0.14315E-08  3344   0.397E-04    0.154E-04
DAV:   6    -0.208859522728E+03    0.10122E-06   -0.28741E-09  3072   0.266E-04    0.492E-05
DAV:   7    -0.208859522706E+03    0.21108E-07   -0.15603E-09  3064   0.174E-04    0.314E-05
DAV:   8    -0.208859522708E+03   -0.12651E-08   -0.58065E-10  3016   0.107E-04
   5 F= -.20885952E+03 E0= -.20885952E+03  d E =-.995732E-06
 trial-energy change:   -0.000001  1 .order   -0.000000   -0.000001   -0.000000
 step:   0.9704(harm=  1.5116)  dis= 0.00004  next Energy=  -208.859523 (dE=-0.100E-05)
 bond charge predicted
       N       E                     dE             d eps       ncg     rms          rms(c)
DAV:   1    -0.208859522764E+03   -0.57370E-07   -0.66825E-07  7120   0.184E-03    0.333E-04
DAV:   2    -0.208859522790E+03   -0.26613E-07   -0.95231E-09  3040   0.439E-04    0.127E-04
DAV:   3    -0.208859522785E+03    0.59154E-08   -0.32231E-09  3000   0.193E-04    0.373E-05
DAV:   4    -0.208859522768E+03    0.16575E-07   -0.81482E-10  3000   0.119E-04    0.239E-05
DAV:   5    -0.208859522765E+03    0.32560E-08   -0.43916E-10  3000   0.968E-05
   6 F= -.20885952E+03 E0= -.20885952E+03  d E =-.105270E-05
 curvature:  -0.15 expect dE=-0.132E-07 dE for cont linesearch -0.997E-08
 ZBRENT: increasing intervall
 opt :   1.0755  next Energy=  -208.859523 (dE=-0.107E-05)
 bond charge predicted
       N       E                     dE             d eps       ncg     rms          rms(c)
DAV:   1    -0.208859522876E+03   -0.10811E-06   -0.26772E-06  8000   0.366E-03    0.690E-04
DAV:   2    -0.208859522916E+03   -0.40317E-07   -0.43615E-08  4944   0.847E-04    0.273E-04
DAV:   3    -0.208859522916E+03    0.32105E-09   -0.11567E-08  3040   0.415E-04    0.762E-05
DAV:   4    -0.208859522881E+03    0.34961E-07   -0.25758E-09  3000   0.177E-04    0.410E-05
DAV:   5    -0.208859522855E+03    0.26115E-07   -0.67089E-10  3000   0.105E-04    0.198E-05
DAV:   6    -0.208859522847E+03    0.79435E-08   -0.32567E-10  3000   0.747E-05
   7 F= -.20885952E+03 E0= -.20885952E+03  d E =-.113504E-05
 curvature:  -0.30 expect dE=-0.196E-07 dE for cont linesearch -0.131E-07
 ZBRENT: increasing intervall
 opt :   1.2857  next Energy=  -208.859523 (dE=-0.116E-05)
 bond charge predicted
       N       E                     dE             d eps       ncg     rms          rms(c)
DAV:   1    -0.208859523083E+03   -0.22837E-06   -0.10685E-05  7992   0.732E-03    0.139E-03
DAV:   2    -0.208859523150E+03   -0.66448E-07   -0.18825E-07  6800   0.170E-03    0.532E-04
DAV:   3    -0.208859523149E+03    0.12187E-08   -0.29173E-08  4208   0.794E-04    0.169E-04
DAV:   4    -0.208859523086E+03    0.63067E-07   -0.85549E-09  3000   0.314E-04    0.896E-05
DAV:   5    -0.208859523034E+03    0.51670E-07   -0.21098E-09  3000   0.183E-04    0.400E-05
DAV:   6    -0.208859523016E+03    0.18325E-07   -0.11545E-09  3000   0.127E-04    0.286E-05
DAV:   7    -0.208859523012E+03    0.39672E-08   -0.43958E-10  3000   0.931E-05
   8 F= -.20885952E+03 E0= -.20885952E+03  d E =-.129955E-05
 curvature:  -0.66 expect dE=-0.205E-07 dE for cont linesearch -0.870E-08
 ZBRENT: increasing intervall
 opt :   1.7063  next Energy=  -208.859523 (dE=-0.131E-05)
 bond charge predicted
       N       E                     dE             d eps       ncg     rms          rms(c)
DAV:   1    -0.208859523525E+03   -0.50975E-06   -0.42652E-05  7992   0.146E-02    0.279E-03
DAV:   2    -0.208859523580E+03   -0.55185E-07   -0.75486E-07  7280   0.339E-03    0.106E-03
DAV:   3    -0.208859523559E+03    0.21326E-07   -0.12350E-07  6000   0.157E-03    0.319E-04
DAV:   4    -0.208859523442E+03    0.11725E-06   -0.20973E-08  3272   0.519E-04    0.165E-04
DAV:   5    -0.208859523304E+03    0.13779E-06   -0.64704E-09  3072   0.311E-04    0.554E-05
DAV:   6    -0.208859523294E+03    0.10276E-07   -0.30578E-09  3016   0.241E-04    0.419E-05
DAV:   7    -0.208859523288E+03    0.54542E-08   -0.11513E-09  3000   0.148E-04
   9 F= -.20885952E+03 E0= -.20885952E+03  d E =-.157636E-05
 curvature:  -0.64 expect dE=-0.252E-07 dE for cont linesearch -0.538E-08
 ZBRENT: bracketing found
 ZBRENT: interpolating
 opt :   1.5195  next Energy=  -208.859523 (dE=-0.158E-05)
 bond charge predicted
       N       E                     dE             d eps       ncg     rms          rms(c)
DAV:   1    -0.208859523195E+03    0.98919E-07   -0.83931E-06  8008   0.651E-03    0.125E-03
DAV:   2    -0.208859523075E+03    0.12012E-06   -0.14829E-07  6504   0.151E-03    0.482E-04
DAV:   3    -0.208859523063E+03    0.11658E-07   -0.23006E-08  3560   0.714E-04    0.151E-04
DAV:   4    -0.208859523121E+03   -0.58319E-07   -0.70169E-09  3000   0.282E-04    0.799E-05
DAV:   5    -0.208859523170E+03   -0.48714E-07   -0.18024E-09  2984   0.175E-04    0.364E-05
DAV:   6    -0.208859523185E+03   -0.14571E-07   -0.98878E-10  3000   0.122E-04    0.271E-05
DAV:   7    -0.208859523189E+03   -0.41164E-08   -0.38789E-10  3000   0.900E-05
  10 F= -.20885952E+03 E0= -.20885952E+03  d E =-.147683E-05
 curvature:  -0.88 expect dE=-0.184E-07 dE for cont linesearch -0.188E-09
 ZBRENT: interpolating
 opt :   1.5451  next Energy=  -208.859523 (dE=-0.148E-05)
 bond charge predicted
       N       E                     dE             d eps       ncg     rms          rms(c)
DAV:   1    -0.208859523207E+03   -0.22174E-07   -0.15320E-07  4984   0.895E-04    0.156E-04
DAV:   2    -0.208859523221E+03   -0.14359E-07   -0.39007E-09  2976   0.312E-04    0.692E-05
DAV:   3    -0.208859523215E+03    0.65666E-08   -0.10087E-09  2976   0.108E-04    0.223E-05
DAV:   4    -0.208859523208E+03    0.64283E-08   -0.21460E-10  2976   0.633E-05    0.132E-05
DAV:   5    -0.208859523204E+03    0.41891E-08   -0.10813E-10  2976   0.501E-05
  11 F= -.20885952E+03 E0= -.20885952E+03  d E =-.149207E-05
 curvature:  -0.76 expect dE=-0.182E-07 dE for cont linesearch -0.124E-09
 ZBRENT: interpolating
 opt :   1.5332  next Energy=  -208.859523 (dE=-0.149E-05)
 bond charge predicted
       N       E                     dE             d eps       ncg     rms          rms(c)
DAV:   1    -0.208859523193E+03    0.15329E-07   -0.32067E-08  3936   0.416E-04    0.691E-05
DAV:   2    -0.208859523187E+03    0.63901E-08   -0.13784E-09  2976   0.154E-04    0.316E-05
DAV:   3    -0.208859523188E+03   -0.17080E-08   -0.34979E-10  2976   0.581E-05    0.106E-05
DAV:   4    -0.208859523190E+03   -0.15261E-08   -0.91026E-11  2976   0.380E-05    0.594E-06
DAV:   5    -0.208859523191E+03   -0.97316E-09   -0.42454E-11  2976   0.261E-05
  12 F= -.20885952E+03 E0= -.20885952E+03  d E =-.147874E-05
 curvature:  -0.40 expect dE=-0.842E-08 dE for cont linesearch -0.423E-10
 ZBRENT: interpolating
 opt :   1.5385  next Energy=  -208.859523 (dE=-0.148E-05)
 bond charge predicted
       N       E                     dE             d eps       ncg     rms          rms(c)
DAV:   1    -0.208859523195E+03   -0.54515E-08   -0.46013E-09  2976   0.183E-04    0.544E-05
DAV:   2    -0.208859523206E+03   -0.11238E-07   -0.16240E-09  2976   0.163E-04    0.161E-05
DAV:   3    -0.208859523200E+03    0.62510E-08   -0.43538E-10  2976   0.598E-05    0.120E-05
DAV:   4    -0.208859523200E+03   -0.39108E-10   -0.19012E-10  2976   0.529E-05    0.724E-06
DAV:   5    -0.208859523199E+03    0.16453E-08   -0.56321E-11  2976   0.252E-05
  13 F= -.20885952E+03 E0= -.20885952E+03  d E =-.148660E-05
 curvature:  -0.22 expect dE=-0.538E-08 dE for cont linesearch -0.554E-10
 ZBRENT: interpolating
 opt :   1.5353  next Energy=  -208.859523 (dE=-0.148E-05)
 bond charge predicted
       N       E                     dE             d eps       ncg     rms          rms(c)
DAV:   1    -0.208859523193E+03    0.68185E-08   -0.15568E-09  2976   0.112E-04    0.309E-05
DAV:   2    -0.208859523187E+03    0.59945E-08   -0.53578E-10  2976   0.932E-05    0.983E-06
DAV:   3    -0.208859523191E+03   -0.34024E-08   -0.15423E-10  2976   0.383E-05    0.703E-06
DAV:   4    -0.208859523192E+03   -0.80490E-09   -0.71692E-11  2976   0.326E-05    0.410E-06
DAV:   5    -0.208859523192E+03   -0.60936E-10   -0.23013E-11  2976   0.163E-05
  14 F= -.20885952E+03 E0= -.20885952E+03  d E =-.147970E-05
 curvature:  -0.04 expect dE=-0.787E-09 dE for cont linesearch -0.279E-11
 ZBRENT: bisectioning
 opt :   1.5369  next Energy=  -208.859523 (dE=-0.148E-05)
 bond charge predicted
       N       E                     dE             d eps       ncg     rms          rms(c)
DAV:   1    -0.208859523193E+03   -0.17390E-08   -0.37551E-10  2976   0.552E-05    0.153E-05
DAV:   2    -0.208859523196E+03   -0.28722E-08   -0.12892E-10  2976   0.461E-05    0.485E-06
DAV:   3    -0.208859523195E+03    0.13188E-08   -0.38929E-11  2976   0.196E-05    0.347E-06
DAV:   4    -0.208859523195E+03   -0.15461E-10   -0.13754E-11  2976   0.164E-05    0.191E-06
DAV:   5    -0.208859523194E+03    0.77034E-09   -0.12371E-11  2976   0.821E-06
  15 F= -.20885952E+03 E0= -.20885952E+03  d E =-.148218E-05
 curvature:  -0.15 expect dE=-0.338E-08 dE for cont linesearch -0.673E-11
 ZBRENT: interpolating
 opt :   1.5362  next Energy=  -208.859523 (dE=-0.148E-05)
 bond charge predicted
       N       E                     dE             d eps       ncg     rms          rms(c)
DAV:   1    -0.208859523194E+03    0.86857E-09   -0.79660E-11  2976   0.241E-05    0.663E-06
DAV:   2    -0.208859523193E+03    0.13879E-08   -0.29416E-11  2976   0.200E-05    0.214E-06
DAV:   3    -0.208859523193E+03   -0.37016E-09   -0.14097E-11  2976   0.880E-06    0.149E-06
DAV:   4    -0.208859523194E+03   -0.58571E-09   -0.11821E-11  2976   0.716E-06    0.812E-07
DAV:   5    -0.208859523194E+03    0.44565E-10   -0.90414E-13  2976   0.364E-06
  16 F= -.20885952E+03 E0= -.20885952E+03  d E =-.148161E-05
 curvature:  -0.05 expect dE=-0.984E-09 dE for cont linesearch -0.354E-13
 trial: gam= 0.02580 g(F)=  0.219E-08 g(S)=  0.195E-07 ort = 0.763E-09 (trialstep = 0.104E+01)
 search vector abs. value=  0.224E-07
 bond charge predicted
       N       E                     dE             d eps       ncg     rms          rms(c)
DAV:   1    -0.208859523206E+03   -0.12442E-07   -0.31633E-06  5776   0.471E-03    0.129E-03
DAV:   2    -0.208859523122E+03    0.84447E-07   -0.13313E-07  7064   0.180E-03    0.792E-04
DAV:   3    -0.208859523132E+03   -0.10736E-07   -0.18982E-08  4056   0.839E-04    0.120E-04
DAV:   4    -0.208859523149E+03   -0.16388E-07   -0.18864E-08  3520   0.480E-04    0.855E-05
DAV:   5    -0.208859523169E+03   -0.20395E-07   -0.22356E-09  2968   0.171E-04    0.398E-05
DAV:   6    -0.208859523174E+03   -0.49677E-08   -0.58873E-10  2976   0.883E-05
  17 F= -.20885952E+03 E0= -.20885952E+03  d E =0.194741E-07
 trial-energy change:    0.000000  1 .order   -0.000000   -0.000000   -0.000000
 step:   1.5444(harm=  1.5444)  dis= 0.00000  next Energy=  -208.859523 (dE=-0.168E-07)
 bond charge predicted
       N       E                     dE             d eps       ncg     rms          rms(c)
DAV:   1    -0.208859523170E+03   -0.11205E-08   -0.73868E-07  5784   0.228E-03    0.622E-04
DAV:   2    -0.208859523135E+03    0.35536E-07   -0.28280E-08  4520   0.878E-04    0.382E-04
DAV:   3    -0.208859523142E+03   -0.73778E-08   -0.92705E-09  3168   0.424E-04    0.627E-05
DAV:   4    -0.208859523150E+03   -0.83210E-08   -0.44873E-09  2976   0.253E-04    0.448E-05
DAV:   5    -0.208859523162E+03   -0.11205E-07   -0.88742E-10  2976   0.103E-04    0.178E-05
DAV:   6    -0.208859523163E+03   -0.18235E-08   -0.28779E-10  2976   0.585E-05
  18 F= -.20885952E+03 E0= -.20885952E+03  d E =0.301297E-07
 curvature:  -0.79 expect dE=-0.151E-08 dE for cont linesearch -0.133E-10
 ZBRENT: interpolating
 opt :   1.5044  next Energy=  -208.859523 (dE= 0.301E-07)
 bond charge predicted
       N       E                     dE             d eps       ncg     rms          rms(c)
DAV:   1    -0.208859523167E+03   -0.54633E-08   -0.40658E-09  2976   0.174E-04    0.479E-05
DAV:   2    -0.208859523170E+03   -0.30395E-08   -0.44524E-10  2976   0.870E-05    0.305E-05
DAV:   3    -0.208859523166E+03    0.39990E-08   -0.10003E-10  2976   0.489E-05    0.114E-05
DAV:   4    -0.208859523166E+03   -0.12824E-09   -0.49174E-11  2976   0.303E-05    0.273E-06
DAV:   5    -0.208859523166E+03    0.17735E-09   -0.18349E-11  2976   0.187E-05
  19 F= -.20885952E+03 E0= -.20885952E+03  d E =0.274986E-07
 curvature:  -0.73 expect dE=-0.105E-08 dE for cont linesearch -0.686E-10
 ZBRENT: interpolating
 opt :   1.5325  next Energy=  -208.859523 (dE= 0.301E-07)
 bond charge predicted
       N       E                     dE             d eps       ncg     rms          rms(c)
DAV:   1    -0.208859523166E+03    0.54388E-09   -0.19462E-09  2976   0.126E-04    0.325E-05
DAV:   2    -0.208859523163E+03    0.30159E-08   -0.26565E-10  2976   0.699E-05    0.204E-05
DAV:   3    -0.208859523166E+03   -0.32196E-08   -0.64801E-11  2976   0.338E-05    0.972E-06
DAV:   4    -0.208859523166E+03   -0.48931E-09   -0.30734E-11  2976   0.244E-05    0.244E-06
DAV:   5    -0.208859523166E+03    0.40018E-09   -0.19645E-11  2976   0.155E-05
  20 F= -.20885952E+03 E0= -.20885952E+03  d E =0.275722E-07
 curvature:  -0.04 expect dE=-0.418E-10 dE for cont linesearch -0.466E-13
 trial: gam= 0.04321 g(F)=  0.222E-09 g(S)=  0.859E-09 ort = 0.164E-09 (trialstep = 0.114E+01)
 search vector abs. value=  0.124E-08
 bond charge predicted
       N       E                     dE             d eps       ncg     rms          rms(c)
DAV:   1    -0.208859523249E+03   -0.82793E-07   -0.47270E-07  7240   0.288E-03    0.725E-04
DAV:   2    -0.208859523277E+03   -0.27969E-07   -0.38478E-08  4224   0.757E-04    0.247E-04
DAV:   3    -0.208859523279E+03   -0.15361E-08   -0.76936E-09  2952   0.377E-04    0.810E-05
DAV:   4    -0.208859523248E+03    0.30653E-07   -0.19846E-09  2952   0.172E-04    0.344E-05
DAV:   5    -0.208859523229E+03    0.18952E-07   -0.81948E-10  2952   0.109E-04    0.263E-05
DAV:   6    -0.208859523221E+03    0.82873E-08   -0.38983E-10  2952   0.855E-05
  21 F= -.20885952E+03 E0= -.20885952E+03  d E =-.548062E-07
 trial-energy change:   -0.000000  1 .order    0.000000   -0.000000    0.000000
 step:   0.5119(harm=  0.5119)  dis= 0.00000  next Energy=  -208.859523 (dE=-0.278E-09)
 bond charge predicted
       N       E                     dE             d eps       ncg     rms          rms(c)
DAV:   1    -0.208859523178E+03    0.50637E-07   -0.12857E-07  4552   0.156E-03    0.350E-04
DAV:   2    -0.208859523152E+03    0.26686E-07   -0.13520E-08  2928   0.568E-04    0.136E-04
DAV:   3    -0.208859523165E+03   -0.13173E-07   -0.35743E-09  2928   0.194E-04    0.434E-05
DAV:   4    -0.208859523180E+03   -0.15104E-07   -0.66056E-10  2928   0.835E-05    0.213E-05
DAV:   5    -0.208859523186E+03   -0.63055E-08   -0.23919E-10  2928   0.651E-05
  22 F= -.20885952E+03 E0= -.20885952E+03  d E =-.203527E-07
 curvature:  -0.29 expect dE=-0.163E-09 dE for cont linesearch -0.119E-10
 ZBRENT: interpolating
 opt :   0.6024  next Energy=  -208.859523 (dE=-0.204E-07)
 bond charge predicted
       N       E                     dE             d eps       ncg     rms          rms(c)
DAV:   1    -0.208859523194E+03   -0.14153E-07   -0.23331E-09  2928   0.227E-04    0.526E-05
DAV:   2    -0.208859523200E+03   -0.58535E-08   -0.43836E-10  2928   0.102E-04    0.191E-05
DAV:   3    -0.208859523198E+03    0.17217E-08   -0.11667E-10  2928   0.317E-05    0.953E-06
DAV:   4    -0.208859523197E+03    0.14388E-08   -0.25683E-11  2928   0.251E-05    0.555E-06
DAV:   5    -0.208859523196E+03    0.13224E-08   -0.69002E-12  2928   0.135E-05
  23 F= -.20885952E+03 E0= -.20885952E+03  d E =-.295704E-07
 curvature:  -0.25 expect dE=-0.261E-10 dE for cont linesearch -0.166E-11
 ZBRENT: interpolating
 opt :   0.5763  next Energy=  -208.859523 (dE=-0.296E-07)
 bond charge predicted
       N       E                     dE             d eps       ncg     rms          rms(c)
DAV:   1    -0.208859523193E+03    0.41464E-08   -0.19887E-10  2928   0.638E-05    0.142E-05
DAV:   2    -0.208859523191E+03    0.14425E-08   -0.40333E-11  2928   0.281E-05    0.489E-06
DAV:   3    -0.208859523192E+03   -0.76216E-09   -0.13528E-11  2928   0.755E-06    0.228E-06
DAV:   4    -0.208859523192E+03    0.25830E-09   -0.83247E-12  2928   0.495E-06    0.130E-06
DAV:   5    -0.208859523192E+03   -0.19372E-09   -0.78722E-12  2928   0.354E-06
  24 F= -.20885952E+03 E0= -.20885952E+03  d E =-.260015E-07
 curvature:  -0.18 expect dE=-0.163E-10 dE for cont linesearch -0.112E-12
 trial: gam= 0.08555 g(F)=  0.681E-10 g(S)=  0.240E-10 ort = 0.279E-10 (trialstep = 0.103E+01)
 search vector abs. value=  0.205E-09
 reached required accuracy - stopping structural energy minimisation
