<?xml version="1.0" encoding="ISO-8859-1"?>
<modeling>
 <generator>
  <i name="program" type="string">vasp </i>
  <i name="version" type="string">6.4.3  </i>
  <i name="subversion" type="string">19Mar24 (build Apr 09 2025 20:43:19) complex                          parallel </i>
  <i name="platform" type="string">LinuxIFC </i>
  <i name="date" type="string">2025 04 11 </i>
  <i name="time" type="string">21:26:43 </i>
 </generator>
 <incar>
  <i type="string" name="PREC">Accurate</i>
  <i type="int" name="IALGO">    38</i>
  <i type="logical" name="ADDGRID"> T  </i>
  <i type="int" name="NELMIN">     5</i>
  <i type="int" name="IBRION">     2</i>
  <i name="EDIFF">      0.00000001</i>
  <i name="EDIFFG">     -0.00001000</i>
  <i type="int" name="NSW">   100</i>
  <i type="int" name="ISIF">     3</i>
  <i name="ENCUT">    520.00000000</i>
  <i type="logical" name="LREAL"> F  </i>
  <i type="int" name="ISMEAR">     0</i>
  <i name="SIGMA">      0.05000000</i>
  <i type="logical" name="LWAVE"> F  </i>
  <i type="logical" name="LCHARG"> F  </i>
 </incar>
 <primitive_cell>
  <structure name="primitive_cell" >
   <crystal>
    <varray name="basis" >
     <v>       7.83999502       0.00000000       0.00000000 </v>
     <v>       0.00000000       7.83999502       0.00000000 </v>
     <v>       0.00000000       0.00000000      12.37203443 </v>
    </varray>
    <i name="volume">    760.45355304 </i>
    <varray name="rec_basis" >
     <v>       0.12755110       0.00000000       0.00000000 </v>
     <v>       0.00000000       0.12755110       0.00000000 </v>
     <v>       0.00000000       0.00000000       0.08082745 </v>
    </varray>
   </crystal>
   <varray name="positions" >
    <v>       0.24891099       0.24891099       0.85428689 </v>
    <v>       0.75108901       0.24891099       0.85428689 </v>
    <v>       0.24891099       0.75108901       0.85428689 </v>
    <v>       0.75108901       0.75108901       0.85428689 </v>
    <v>       0.00000000       0.00000000       0.64671288 </v>
    <v>       0.50000000       0.00000000       0.64751054 </v>
    <v>       0.00000000       0.50000000       0.64751054 </v>
    <v>       0.50000000       0.50000000       0.64841183 </v>
    <v>       0.00000000       0.00000000       0.35328712 </v>
    <v>       0.50000000       0.00000000       0.35248946 </v>
    <v>       0.00000000       0.50000000       0.35248946 </v>
    <v>       0.50000000       0.50000000       0.35158817 </v>
    <v>       0.24891099       0.24891099       0.14571311 </v>
    <v>       0.75108901       0.24891099       0.14571311 </v>
    <v>       0.24891099       0.75108901       0.14571311 </v>
    <v>       0.75108901       0.75108901       0.14571311 </v>
    <v>       0.50000000       0.00000000       0.00000000 </v>
    <v>       0.00000000       0.50000000       0.00000000 </v>
    <v>       0.50000000       0.50000000       0.00000000 </v>
    <v>       0.25013772       0.25013772       0.50000000 </v>
    <v>       0.74986228       0.25013772       0.50000000 </v>
    <v>       0.25013772       0.74986228       0.50000000 </v>
    <v>       0.74986228       0.74986228       0.50000000 </v>
    <v>       0.00000000       0.24953536       0.75047321 </v>
    <v>       0.50000000       0.24967039       0.75139398 </v>
    <v>       0.00000000       0.75046464       0.75047321 </v>
    <v>       0.50000000       0.75032961       0.75139398 </v>
    <v>       0.24953536       0.00000000       0.75047321 </v>
    <v>       0.75046464       0.00000000       0.75047321 </v>
    <v>       0.24967039       0.50000000       0.75139398 </v>
    <v>       0.75032961       0.50000000       0.75139398 </v>
    <v>       0.24953536       0.00000000       0.24952679 </v>
    <v>       0.75046464       0.00000000       0.24952679 </v>
    <v>       0.24967039       0.50000000       0.24860602 </v>
    <v>       0.75032961       0.50000000       0.24860602 </v>
    <v>       0.00000000       0.24953536       0.24952679 </v>
    <v>       0.50000000       0.24967039       0.24860602 </v>
    <v>       0.00000000       0.75046464       0.24952679 </v>
    <v>       0.50000000       0.75032961       0.24860602 </v>
    <v>       0.00000000       0.00000000       0.00000000 </v>
   </varray>
  </structure>
  <varray name="primitive_index" >
   <v type="int" >        1 </v>
   <v type="int" >        2 </v>
   <v type="int" >        3 </v>
   <v type="int" >        4 </v>
   <v type="int" >        5 </v>
   <v type="int" >        6 </v>
   <v type="int" >        7 </v>
   <v type="int" >        8 </v>
   <v type="int" >        9 </v>
   <v type="int" >       10 </v>
   <v type="int" >       11 </v>
   <v type="int" >       12 </v>
   <v type="int" >       13 </v>
   <v type="int" >       14 </v>
   <v type="int" >       15 </v>
   <v type="int" >       16 </v>
   <v type="int" >       17 </v>
   <v type="int" >       18 </v>
   <v type="int" >       19 </v>
   <v type="int" >       20 </v>
   <v type="int" >       21 </v>
   <v type="int" >       22 </v>
   <v type="int" >       23 </v>
   <v type="int" >       24 </v>
   <v type="int" >       25 </v>
   <v type="int" >       26 </v>
   <v type="int" >       27 </v>
   <v type="int" >       28 </v>
   <v type="int" >       29 </v>
   <v type="int" >       30 </v>
   <v type="int" >       31 </v>
   <v type="int" >       32 </v>
   <v type="int" >       33 </v>
   <v type="int" >       34 </v>
   <v type="int" >       35 </v>
   <v type="int" >       36 </v>
   <v type="int" >       37 </v>
   <v type="int" >       38 </v>
   <v type="int" >       39 </v>
   <v type="int" >       40 </v>
  </varray>
 </primitive_cell>
 <kpoints>
  <generation param="Gamma">
   <v type="int" name="divisions">       4        4        3 </v>
   <v name="usershift">      0.00000000       0.00000000       0.00000000 </v>
   <v name="genvec1">      0.25000000       0.00000000       0.00000000 </v>
   <v name="genvec2">      0.00000000       0.25000000       0.00000000 </v>
   <v name="genvec3">      0.00000000       0.00000000       0.33333333 </v>
   <v name="shift">      0.00000000       0.00000000       0.00000000 </v>
  </generation>
  <varray name="kpointlist" >
   <v>       0.00000000       0.00000000       0.00000000 </v>
   <v>       0.25000000       0.00000000       0.00000000 </v>
   <v>       0.50000000       0.00000000       0.00000000 </v>
   <v>       0.25000000       0.25000000       0.00000000 </v>
   <v>       0.50000000       0.25000000       0.00000000 </v>
   <v>       0.50000000       0.50000000       0.00000000 </v>
   <v>       0.00000000       0.00000000       0.33333333 </v>
   <v>       0.25000000       0.00000000       0.33333333 </v>
   <v>       0.50000000       0.00000000       0.33333333 </v>
   <v>       0.25000000       0.25000000       0.33333333 </v>
   <v>       0.50000000       0.25000000       0.33333333 </v>
   <v>       0.50000000       0.50000000       0.33333333 </v>
  </varray>
  <varray name="weights" >
   <v>       0.02083333 </v>
   <v>       0.08333333 </v>
   <v>       0.04166667 </v>
   <v>       0.08333333 </v>
   <v>       0.08333333 </v>
   <v>       0.02083333 </v>
   <v>       0.04166667 </v>
   <v>       0.16666667 </v>
   <v>       0.08333333 </v>
   <v>       0.16666667 </v>
   <v>       0.16666667 </v>
   <v>       0.04166667 </v>
  </varray>
 </kpoints>
 <parameters>
  <separator name="general" >
   <i type="string" name="SYSTEM">unknown system</i>
   <i type="logical" name="LCOMPAT"> F  </i>
  </separator>
  <separator name="electronic" >
   <i type="string" name="PREC">accura</i>
   <i name="ENMAX">    520.00000000</i>
   <i name="ENAUG">    605.39200000</i>
   <i name="EDIFF">      0.00000001</i>
   <i type="int" name="IALGO">    38</i>
   <i type="int" name="IWAVPR">    11</i>
   <i type="int" name="NBANDS">   232</i>
   <i type="int" name="NBANDSLOW">    -1</i>
   <i type="int" name="NBANDSHIGH">    -1</i>
   <i name="NELECT">    384.00000000</i>
   <i type="int" name="TURBO">     0</i>
   <i type="int" name="IRESTART">     0</i>
   <i type="int" name="NREBOOT">     0</i>
   <i type="int" name="NMIN">     0</i>
   <i name="EREF">      0.00000000</i>
   <separator name="electronic smearing" >
    <i type="int" name="ISMEAR">     0</i>
    <i name="SIGMA">      0.05000000</i>
    <i name="KSPACING">      0.50000000</i>
    <i type="logical" name="KGAMMA"> T  </i>
    <i type="logical" name="KBLOWUP"> T  </i>
   </separator>
   <separator name="electronic projectors" >
    <i type="logical" name="LREAL"> F  </i>
    <v name="ROPT">      0.00000000      0.00000000      0.00000000      0.00000000</v>
    <i type="int" name="LMAXPAW">  -100</i>
    <i type="int" name="LMAXMIX">     2</i>
    <i type="logical" name="NLSPLINE"> F  </i>
   </separator>
   <separator name="electronic startup" >
    <i type="int" name="ISTART">     0</i>
    <i type="int" name="ICHARG">     2</i>
    <i type="int" name="INIWAV">     1</i>
   </separator>
   <separator name="electronic spin" >
    <i type="int" name="ISPIN">     1</i>
    <i type="logical" name="LNONCOLLINEAR"> F  </i>
    <v name="MAGMOM">      1.00000000      1.00000000      1.00000000      1.00000000      1.00000000      1.00000000      1.00000000      1.00000000      1.00000000      1.00000000      1.00000000      1.00000000      1.00000000      1.00000000      1.00000000      1.00000000      1.00000000      1.00000000      1.00000000      1.00000000
      1.00000000      1.00000000      1.00000000      1.00000000      1.00000000      1.00000000      1.00000000      1.00000000      1.00000000      1.00000000      1.00000000      1.00000000      1.00000000      1.00000000      1.00000000      1.00000000      1.00000000      1.00000000      1.00000000      1.00000000
</v>
    <i name="NUPDOWN">     -1.00000000</i>
    <i type="logical" name="LSORBIT"> F  </i>
    <v name="SAXIS">      0.00000000      0.00000000      1.00000000</v>
    <i type="logical" name="LSPIRAL"> F  </i>
    <v name="QSPIRAL">      0.00000000      0.00000000      0.00000000</v>
    <i type="logical" name="LZEROZ"> F  </i>
   </separator>
   <separator name="electronic exchange-correlation" >
    <i type="logical" name="LASPH"> F  </i>
   </separator>
   <separator name="electronic convergence" >
    <i type="int" name="NELM">    60</i>
    <i type="int" name="NELMDL">    -5</i>
    <i type="int" name="NELMIN">     5</i>
    <i name="ENINI">    520.00000000</i>
    <separator name="electronic convergence detail" >
     <i type="logical" name="LDIAG"> T  </i>
     <i type="logical" name="LSUBROT"> F  </i>
     <i name="WEIMIN">      0.00100000</i>
     <i name="EBREAK">      0.00000000</i>
     <i name="DEPER">      0.30000000</i>
     <i type="int" name="NRMM">     4</i>
     <i name="TIME">      0.40000000</i>
    </separator>
   </separator>
   <separator name="electronic mixer" >
    <i name="AMIX">      0.40000000</i>
    <i name="BMIX">      1.00000000</i>
    <i name="AMIN">      0.10000000</i>
    <i name="AMIX_MAG">      1.60000000</i>
    <i name="BMIX_MAG">      1.00000000</i>
    <separator name="electronic mixer details" >
     <i type="int" name="IMIX">     4</i>
     <i type="logical" name="MIXFIRST"> F  </i>
     <i type="int" name="MAXMIX">   -45</i>
     <i name="WC">    100.00000000</i>
     <i type="int" name="INIMIX">     1</i>
     <i type="int" name="MIXPRE">     1</i>
     <i type="int" name="MREMOVE">     5</i>
    </separator>
   </separator>
   <separator name="electronic dipolcorrection" >
    <i type="logical" name="LDIPOL"> F  </i>
    <i type="logical" name="LMONO"> F  </i>
    <i type="int" name="IDIPOL">     0</i>
    <i name="EPSILON">      1.00000000</i>
    <v name="DIPOL">   -100.00000000   -100.00000000   -100.00000000</v>
    <i name="EFIELD">      0.00000000</i>
    <i type="logical" name="LVACPOTAV"> F  </i>
   </separator>
  </separator>
  <separator name="grids" >
   <i type="int" name="NGX">    60</i>
   <i type="int" name="NGY">    60</i>
   <i type="int" name="NGZ">    96</i>
   <i type="int" name="NGXF">   120</i>
   <i type="int" name="NGYF">   120</i>
   <i type="int" name="NGZF">   192</i>
   <i type="logical" name="ADDGRID"> T  </i>
  </separator>
  <separator name="ionic" >
   <i type="int" name="NSW">   100</i>
   <i type="int" name="IBRION">     2</i>
   <i type="int" name="MDALGO">     0</i>
   <i type="int" name="ISIF">     3</i>
   <i name="PSTRESS">      0.00000000</i>
   <i name="EDIFFG">     -0.00001000</i>
   <i type="int" name="NFREE">     1</i>
   <i name="POTIM">      0.50000000</i>
   <i name="SMASS">     -3.00000000</i>
   <i name="SCALEE">      1.00000000</i>
  </separator>
  <separator name="ionic md" >
   <i name="TEBEG">      0.00010000</i>
   <i name="TEEND">      0.00010000</i>
   <i type="int" name="NBLOCK">     1</i>
   <i type="int" name="KBLOCK">   100</i>
   <i type="int" name="NPACO">   256</i>
   <i name="APACO">     10.00000000</i>
  </separator>
  <separator name="symmetry" >
   <i type="int" name="ISYM">     2</i>
   <i name="SYMPREC">      0.00001000</i>
  </separator>
  <separator name="dos" >
   <i type="int" name="LORBIT">     0</i>
   <v name="RWIGS">     -1.00000000     -1.00000000     -1.00000000     -1.00000000</v>
   <i type="int" name="NEDOS">   301</i>
   <i name="EMIN">     10.00000000</i>
   <i name="EMAX">    -10.00000000</i>
   <i name="EFERMI">      0.00000000</i>
  </separator>
  <separator name="writing" >
   <i type="int" name="NWRITE">     2</i>
   <i type="logical" name="LWAVE"> F  </i>
   <i type="logical" name="LDOWNSAMPLE"> F  </i>
   <i type="logical" name="LCHARG"> F  </i>
   <i type="logical" name="LPARD"> F  </i>
   <i type="logical" name="LVTOT"> F  </i>
   <i type="logical" name="LVHAR"> F  </i>
   <i type="logical" name="LELF"> F  </i>
   <i type="logical" name="LOPTICS"> F  </i>
   <v name="STM">      0.00000000      0.00000000      0.00000000      0.00000000      0.00000000      0.00000000      0.00000000</v>
  </separator>
  <separator name="performance" >
   <i type="int" name="NPAR">     4</i>
   <i type="int" name="NSIM">     4</i>
   <i type="int" name="NBLK">    -1</i>
   <i type="logical" name="LPLANE"> T  </i>
   <i type="logical" name="LSCALAPACK"> T  </i>
   <i type="logical" name="LSCAAWARE"> F  </i>
   <i type="logical" name="LSCALU"> F  </i>
   <i type="logical" name="LASYNC"> F  </i>
   <i type="logical" name="LORBITALREAL"> F  </i>
  </separator>
  <separator name="miscellaneous" >
   <i type="int" name="IDIOT">     3</i>
   <i type="int" name="PHON_NSTRUCT">    -1</i>
   <i type="logical" name="LMUSIC"> F  </i>
   <v name="POMASS">    208.98000000     78.96000000     16.00000000     32.06600000</v>
   <v name="DARWINR">      0.00000000      0.00000000      0.00000000      0.00000000</v>
   <v name="DARWINV">      1.00000000      1.00000000      1.00000000      1.00000000</v>
   <i type="logical" name="LCORR"> T  </i>
  </separator>
  <i type="logical" name="GGA_COMPAT"> T  </i>
  <i type="logical" name="LBERRY"> F  </i>
  <i type="int" name="ICORELEVEL">     0</i>
  <i type="logical" name="LDAU"> F  </i>
  <i type="int" name="I_CONSTRAINED_M">     0</i>
  <separator name="electronic exchange-correlation" >
   <i type="string" name="GGA    ">PE</i>
   <i type="string" name="XC_C">1</i>
   <i type="int" name="VOSKOWN">     0</i>
   <i type="logical" name="LHFCALC"> F  </i>
   <i type="string" name="PRECFOCK"></i>
   <i type="logical" name="LSYMGRAD"> F  </i>
   <i type="logical" name="LHFONE"> F  </i>
   <i type="logical" name="LRHFCALC"> F  </i>
   <i type="logical" name="LTHOMAS"> F  </i>
   <i type="logical" name="LMODELHF"> F  </i>
   <i type="logical" name="LFOCKACE"> F  </i>
   <i name="ENCUT4O">     -1.00000000</i>
   <i type="int" name="EXXOEP">     0</i>
   <i type="int" name="FOURORBIT">     0</i>
   <i name="AEXX">      0.00000000</i>
   <i name="HFALPHA">      0.00000000</i>
   <i name="MCALPHA">      0.00000000</i>
   <i name="ALDAX">      1.00000000</i>
   <i name="AGGAX">      1.00000000</i>
   <i name="AMGGAX">      1.00000000</i>
   <i name="ALDAC">      1.00000000</i>
   <i name="AGGAC">      1.00000000</i>
   <i name="AMGGAC">      1.00000000</i>
   <i type="int" name="NKREDX">     1</i>
   <i type="int" name="NKREDY">     1</i>
   <i type="int" name="NKREDZ">     1</i>
   <i type="logical" name="SHIFTRED"> F  </i>
   <i type="logical" name="ODDONLY"> F  </i>
   <i type="logical" name="EVENONLY"> F  </i>
   <i type="int" name="LMAXFOCK">     0</i>
   <i type="int" name="NMAXFOCKAE">     0</i>
   <i type="logical" name="LFOCKAEDFT"> F  </i>
   <i name="HFSCREEN">      0.00000000</i>
   <i name="HFSCREENC">      0.00000000</i>
   <i type="int" name="NBANDSGWLOW">     0</i>
  </separator>
  <separator name="vdW DFT" >
   <i type="logical" name="LUSE_VDW"> F  </i>
   <i type="int" name="IVDW_NL">    -1</i>
   <i type="logical" name="LSPIN_VDW"> F  </i>
   <i name="ZAB_VDW">     -0.84910000</i>
   <i name="GAMMA_VDW">      1.39626340</i>
   <i name="ALPHA_VDW">      0.00000000</i>
   <i name="PARAM1">      0.12340000</i>
   <i name="PARAM2">      1.00000000</i>
   <i name="BPARAM">      6.30000000</i>
   <i name="CPARAM">      0.00930000</i>
  </separator>
  <separator name="model GW" >
   <i type="int" name="MODEL_GW">     0</i>
   <i name="MODEL_EPS0">     11.40680330</i>
   <i name="MODEL_ALPHA">      1.00000000</i>
  </separator>
  <separator name="linear response parameters" >
   <i type="logical" name="LEPSILON"> F  </i>
   <i type="logical" name="LRPA"> F  </i>
   <i type="logical" name="LNABLA"> F  </i>
   <i type="logical" name="LVEL"> F  </i>
   <i name="CSHIFT">      0.10000000</i>
   <i name="OMEGAMAX">     -1.00000000</i>
   <i name="DEG_THRESHOLD">      0.00200000</i>
   <i name="RTIME">     -0.10000000</i>
   <i name="WPLASMAI">      0.00000000</i>
   <v name="DFIELD">      0.00000000      0.00000000      0.00000000</v>
   <v name="WPLASMA">      0.00000000      0.00000000      0.00000000      0.00000000      0.00000000      0.00000000      0.00000000      0.00000000      0.00000000</v>
  </separator>
  <separator name="orbital magnetization" >
   <i type="logical" name="NUCIND"> F  </i>
   <v name="MAGPOS">      0.00000000      0.00000000      0.00000000</v>
   <i type="logical" name="LNICSALL"> T  </i>
   <i type="logical" name="ORBITALMAG"> F  </i>
   <i type="logical" name="LMAGBLOCH"> F  </i>
   <i type="logical" name="LCHIMAG"> F  </i>
   <i type="logical" name="LGAUGE"> T  </i>
   <i type="int" name="MAGATOM">     0</i>
   <v name="MAGDIPOL">      0.00000000      0.00000000      0.00000000</v>
   <v name="AVECCONST">      0.00000000      0.00000000      0.00000000</v>
  </separator>
  <separator name="response functions" >
   <i type="logical" name="LALL_IN_ONE"> F  </i>
   <i type="int" name="IALL_IN_ONE">    -1</i>
   <i type="int" name="NBANDS_WAVE">    -1</i>
   <i type="logical" name="LFINITE_TEMPERATURE"> F  </i>
   <i type="logical" name="LADDER"> F  </i>
   <i type="logical" name="LRPAFORCE"> F  </i>
   <i type="logical" name="LFXC"> F  </i>
   <i type="logical" name="LHARTREE"> T  </i>
   <i type="int" name="IBSE">     0</i>
   <v type="int" name="KPOINT">    -1     0     0     0</v>
   <i type="logical" name="LTCTC"> F  </i>
   <i type="logical" name="LTCTE"> F  </i>
   <i type="logical" name="LTETE"> F  </i>
   <i type="logical" name="LTRIPLET"> F  </i>
   <i type="logical" name="LFXCEPS"> F  </i>
   <i type="logical" name="LFXHEG"> F  </i>
   <i type="int" name="NATURALO">     2</i>
   <i type="logical" name="LHOLEGF"> F  </i>
   <i type="logical" name="L2ORDER"> F  </i>
   <i type="logical" name="LDMP1"> F  </i>
   <i type="logical" name="LMP2LT"> F  </i>
   <i type="logical" name="LSMP2LT"> F  </i>
   <i type="logical" name="LGWLF"> F  </i>
   <i name="ENCUTGW">     -1.60000002</i>
   <i name="ENCUTGWSOFT">     -1.60000002</i>
   <i name="ENCUTLF">     -1.00000000</i>
   <i type="logical" name="ESF_SPLINES"> F  </i>
   <i name="ESF_CONV">      0.01000000</i>
   <i type="int" name="ESF_NINTER">    15</i>
   <i type="int" name="LMAXMP2">    -1</i>
   <i name="SCISSOR">      0.00000000</i>
   <i type="int" name="NOMEGA">     0</i>
   <i type="int" name="NOMEGAR">     0</i>
   <i type="int" name="NBANDSGW">    -1</i>
   <i type="int" name="NBANDSO">    -1</i>
   <i type="int" name="NBANDSV">    -1</i>
   <i type="int" name="NELMGW">     1</i>
   <i type="int" name="NELMHF">     1</i>
   <i type="int" name="DIM">     3</i>
   <i type="int" name="IESPILON">     4</i>
   <i type="int" name="ANTIRES">     0</i>
   <i name="OMEGAMAX">    -30.00000000</i>
   <i name="OMEGAMIN">    -30.00000000</i>
   <i name="OMEGATL">   -200.00000000</i>
   <i type="int" name="OMEGAGRID">     0</i>
   <i name="CSHIFT">     -0.10000000</i>
   <i type="logical" name="LSELFENERGY"> F  </i>
   <i type="logical" name="LSPECTRAL"> F  </i>
   <i type="logical" name="LSPECTRALGW"> F  </i>
   <i type="logical" name="LSINGLES"> F  </i>
   <i type="logical" name="LFERMIGW"> F  </i>
   <i type="logical" name="ODDONLYGW"> F  </i>
   <i type="logical" name="EVENONLYGW"> F  </i>
   <i type="int" name="NKREDLFX">     1</i>
   <i type="int" name="NKREDLFY">     1</i>
   <i type="int" name="NKREDLFZ">     1</i>
   <i type="int" name="MAXMEM">  2800</i>
   <i type="int" name="TELESCOPE">     0</i>
   <i type="int" name="NTAUPAR">    -1</i>
   <i type="int" name="NOMEGAPAR">    -1</i>
   <i name="DAMP_NEWTON">      0.80000001</i>
   <i name="LAMBDA">      1.00000000</i>
  </separator>
  <separator name="External order field" >
   <i name="OFIELD_KAPPA">      0.00000000</i>
   <v name="OFIELD_K">      0.00000000      0.00000000      0.00000000</v>
   <i name="OFIELD_Q6_NEAR">      0.00000000</i>
   <i name="OFIELD_Q6_FAR">      0.00000000</i>
   <i name="OFIELD_A">      0.00000000</i>
  </separator>
  <separator name="optional k-points parameters" >
   <i type="int" name="KPOINTS_OPT_MODE">     1</i>
   <i type="logical" name="LKPOINTS_OPT"> F  </i>
  </separator>
 </parameters>
 <atominfo>
  <atoms>      40 </atoms>
  <types>       4 </types>
  <array name="atoms" >
   <dimension dim="1">ion</dimension>
   <field type="string">element</field>
   <field type="int">atomtype</field>
   <set>
    <rc><c>Bi</c><c>   1</c></rc>
    <rc><c>Bi</c><c>   1</c></rc>
    <rc><c>Bi</c><c>   1</c></rc>
    <rc><c>Bi</c><c>   1</c></rc>
    <rc><c>Bi</c><c>   1</c></rc>
    <rc><c>Bi</c><c>   1</c></rc>
    <rc><c>Bi</c><c>   1</c></rc>
    <rc><c>Bi</c><c>   1</c></rc>
    <rc><c>Bi</c><c>   1</c></rc>
    <rc><c>Bi</c><c>   1</c></rc>
    <rc><c>Bi</c><c>   1</c></rc>
    <rc><c>Bi</c><c>   1</c></rc>
    <rc><c>Bi</c><c>   1</c></rc>
    <rc><c>Bi</c><c>   1</c></rc>
    <rc><c>Bi</c><c>   1</c></rc>
    <rc><c>Bi</c><c>   1</c></rc>
    <rc><c>Se</c><c>   2</c></rc>
    <rc><c>Se</c><c>   2</c></rc>
    <rc><c>Se</c><c>   2</c></rc>
    <rc><c>Se</c><c>   2</c></rc>
    <rc><c>Se</c><c>   2</c></rc>
    <rc><c>Se</c><c>   2</c></rc>
    <rc><c>Se</c><c>   2</c></rc>
    <rc><c>O </c><c>   3</c></rc>
    <rc><c>O </c><c>   3</c></rc>
    <rc><c>O </c><c>   3</c></rc>
    <rc><c>O </c><c>   3</c></rc>
    <rc><c>O </c><c>   3</c></rc>
    <rc><c>O </c><c>   3</c></rc>
    <rc><c>O </c><c>   3</c></rc>
    <rc><c>O </c><c>   3</c></rc>
    <rc><c>O </c><c>   3</c></rc>
    <rc><c>O </c><c>   3</c></rc>
    <rc><c>O </c><c>   3</c></rc>
    <rc><c>O </c><c>   3</c></rc>
    <rc><c>O </c><c>   3</c></rc>
    <rc><c>O </c><c>   3</c></rc>
    <rc><c>O </c><c>   3</c></rc>
    <rc><c>O </c><c>   3</c></rc>
    <rc><c>S </c><c>   4</c></rc>
   </set>
  </array>
  <array name="atomtypes" >
   <dimension dim="1">type</dimension>
   <field type="int">atomspertype</field>
   <field type="string">element</field>
   <field>mass</field>
   <field>valence</field>
   <field type="string">pseudopotential</field>
   <set>
    <rc><c>  16</c><c>Bi</c><c>    208.98000000</c><c>     15.00000000</c><c>  PAW_PBE Bi_d 06Sep2000                </c></rc>
    <rc><c>   7</c><c>Se</c><c>     78.96000000</c><c>      6.00000000</c><c>  PAW_PBE Se 06Sep2000                  </c></rc>
    <rc><c>  16</c><c>O </c><c>     16.00000000</c><c>      6.00000000</c><c>  PAW_PBE O 08Apr2002                   </c></rc>
    <rc><c>   1</c><c>S </c><c>     32.06600000</c><c>      6.00000000</c><c>  PAW_PBE S 06Sep2000                   </c></rc>
   </set>
  </array>
 </atominfo>
 <structure name="initialpos" >
  <crystal>
   <varray name="basis" >
    <v>       7.83999502       0.00000000       0.00000000 </v>
    <v>       0.00000000       7.83999502       0.00000000 </v>
    <v>       0.00000000       0.00000000      12.37203443 </v>
   </varray>
   <i name="volume">    760.45355304 </i>
   <varray name="rec_basis" >
    <v>       0.12755110       0.00000000       0.00000000 </v>
    <v>       0.00000000       0.12755110       0.00000000 </v>
    <v>       0.00000000       0.00000000       0.08082745 </v>
   </varray>
  </crystal>
  <varray name="positions" >
   <v>       0.24891099       0.24891099       0.85428689 </v>
   <v>       0.75108901       0.24891099       0.85428689 </v>
   <v>       0.24891099       0.75108901       0.85428689 </v>
   <v>       0.75108901       0.75108901       0.85428689 </v>
   <v>       0.00000000       0.00000000       0.64671288 </v>
   <v>       0.50000000       0.00000000       0.64751054 </v>
   <v>       0.00000000       0.50000000       0.64751054 </v>
   <v>       0.50000000       0.50000000       0.64841183 </v>
   <v>       0.00000000       0.00000000       0.35328712 </v>
   <v>       0.50000000       0.00000000       0.35248946 </v>
   <v>       0.00000000       0.50000000       0.35248946 </v>
   <v>       0.50000000       0.50000000       0.35158817 </v>
   <v>       0.24891099       0.24891099       0.14571311 </v>
   <v>       0.75108901       0.24891099       0.14571311 </v>
   <v>       0.24891099       0.75108901       0.14571311 </v>
   <v>       0.75108901       0.75108901       0.14571311 </v>
   <v>       0.50000000       0.00000000       0.00000000 </v>
   <v>       0.00000000       0.50000000       0.00000000 </v>
   <v>       0.50000000       0.50000000       0.00000000 </v>
   <v>       0.25013772       0.25013772       0.50000000 </v>
   <v>       0.74986228       0.25013772       0.50000000 </v>
   <v>       0.25013772       0.74986228       0.50000000 </v>
   <v>       0.74986228       0.74986228       0.50000000 </v>
   <v>       0.00000000       0.24953536       0.75047321 </v>
   <v>       0.50000000       0.24967039       0.75139398 </v>
   <v>       0.00000000       0.75046464       0.75047321 </v>
   <v>       0.50000000       0.75032961       0.75139398 </v>
   <v>       0.24953536       0.00000000       0.75047321 </v>
   <v>       0.75046464       0.00000000       0.75047321 </v>
   <v>       0.24967039       0.50000000       0.75139398 </v>
   <v>       0.75032961       0.50000000       0.75139398 </v>
   <v>       0.24953536       0.00000000       0.24952679 </v>
   <v>       0.75046464       0.00000000       0.24952679 </v>
   <v>       0.24967039       0.50000000       0.24860602 </v>
   <v>       0.75032961       0.50000000       0.24860602 </v>
   <v>       0.00000000       0.24953536       0.24952679 </v>
   <v>       0.50000000       0.24967039       0.24860602 </v>
   <v>       0.00000000       0.75046464       0.24952679 </v>
   <v>       0.50000000       0.75032961       0.24860602 </v>
   <v>       0.00000000       0.00000000       0.00000000 </v>
  </varray>
 </structure>
 <calculation>
  <scstep>
   <time name="dav">   32.55   32.56</time>
   <time name="total">   33.40   33.42</time>
   <energy>
    <i name="alphaZ">   1328.36011859 </i>
    <i name="ewald"> -29443.85878275 </i>
    <i name="hartreedc"> -11397.35508248 </i>
    <i name="XCdc">   1234.42080356 </i>
    <i name="pawpsdc">  34040.00696010 </i>
    <i name="pawaedc"> -33495.80632930 </i>
    <i name="eentropy">     -0.00389990 </i>
    <i name="bandstr">   3012.72186619 </i>
    <i name="atom">  40341.65184589 </i>
    <i name="e_fr_energy">   5620.13749991 </i>
    <i name="e_wo_entrp">   5620.14139981 </i>
    <i name="e_0_energy">   5620.13944986 </i>
   </energy>
  </scstep>
  <scstep>
   <time name="dav">   32.65   32.66</time>
   <time name="total">   32.65   32.66</time>
   <energy>
    <i name="e_fr_energy">    956.49877017 </i>
    <i name="e_wo_entrp">    956.50568201 </i>
    <i name="e_0_energy">    956.50222609 </i>
   </energy>
  </scstep>
  <scstep>
   <time name="dav">   35.23   35.24</time>
   <time name="total">   35.23   35.24</time>
   <energy>
    <i name="e_fr_energy">   -112.38133784 </i>
    <i name="e_wo_entrp">   -112.38133784 </i>
    <i name="e_0_energy">   -112.38133784 </i>
   </energy>
  </scstep>
  <scstep>
   <time name="dav">   36.89   36.90</time>
   <time name="total">   36.90   36.90</time>
   <energy>
    <i name="e_fr_energy">   -237.59377588 </i>
    <i name="e_wo_entrp">   -237.59377588 </i>
    <i name="e_0_energy">   -237.59377588 </i>
   </energy>
  </scstep>
  <scstep>
   <time name="dav">   37.45   37.46</time>
   <time name="total">   38.74   38.75</time>
   <energy>
    <i name="e_fr_energy">   -243.33644287 </i>
    <i name="e_wo_entrp">   -243.33644287 </i>
    <i name="e_0_energy">   -243.33644287 </i>
   </energy>
  </scstep>
  <scstep>
   <time name="dav">   41.28   41.28</time>
   <time name="total">   43.42   43.42</time>
   <energy>
    <i name="e_fr_energy">   -208.96016118 </i>
    <i name="e_wo_entrp">   -208.96016118 </i>
    <i name="e_0_energy">   -208.96016118 </i>
   </energy>
  </scstep>
  <scstep>
   <time name="dav">   34.92   34.92</time>
   <time name="total">   37.06   37.06</time>
   <energy>
    <i name="e_fr_energy">   -208.80511991 </i>
    <i name="e_wo_entrp">   -208.80511991 </i>
    <i name="e_0_energy">   -208.80511991 </i>
   </energy>
  </scstep>
  <scstep>
   <time name="dav">   42.55   42.55</time>
   <time name="total">   44.69   44.69</time>
   <energy>
    <i name="e_fr_energy">   -208.94722471 </i>
    <i name="e_wo_entrp">   -208.94722470 </i>
    <i name="e_0_energy">   -208.94722471 </i>
   </energy>
  </scstep>
  <scstep>
   <time name="dav">   40.34   40.34</time>
   <time name="total">   42.48   42.49</time>
   <energy>
    <i name="e_fr_energy">   -208.86841068 </i>
    <i name="e_wo_entrp">   -208.86841068 </i>
    <i name="e_0_energy">   -208.86841068 </i>
   </energy>
  </scstep>
  <scstep>
   <time name="dav">   38.14   38.15</time>
   <time name="total">   40.28   40.29</time>
   <energy>
    <i name="e_fr_energy">   -208.85627123 </i>
    <i name="e_wo_entrp">   -208.85627123 </i>
    <i name="e_0_energy">   -208.85627123 </i>
   </energy>
  </scstep>
  <scstep>
   <time name="dav">   40.07   40.07</time>
   <time name="total">   42.20   42.20</time>
   <energy>
    <i name="e_fr_energy">   -208.85870941 </i>
    <i name="e_wo_entrp">   -208.85870941 </i>
    <i name="e_0_energy">   -208.85870941 </i>
   </energy>
  </scstep>
  <scstep>
   <time name="dav">   41.68   41.68</time>
   <time name="total">   43.82   43.82</time>
   <energy>
    <i name="e_fr_energy">   -208.85957739 </i>
    <i name="e_wo_entrp">   -208.85957739 </i>
    <i name="e_0_energy">   -208.85957739 </i>
   </energy>
  </scstep>
  <scstep>
   <time name="dav">   35.80   35.80</time>
   <time name="total">   37.93   37.94</time>
   <energy>
    <i name="e_fr_energy">   -208.85961474 </i>
    <i name="e_wo_entrp">   -208.85961474 </i>
    <i name="e_0_energy">   -208.85961474 </i>
   </energy>
  </scstep>
  <scstep>
   <time name="dav">   38.10   38.12</time>
   <time name="total">   40.24   40.26</time>
   <energy>
    <i name="e_fr_energy">   -208.85954843 </i>
    <i name="e_wo_entrp">   -208.85954843 </i>
    <i name="e_0_energy">   -208.85954843 </i>
   </energy>
  </scstep>
  <scstep>
   <time name="dav">   42.90   42.90</time>
   <time name="total">   45.03   45.03</time>
   <energy>
    <i name="e_fr_energy">   -208.85953032 </i>
    <i name="e_wo_entrp">   -208.85953032 </i>
    <i name="e_0_energy">   -208.85953032 </i>
   </energy>
  </scstep>
  <scstep>
   <time name="dav">   36.09   36.09</time>
   <time name="total">   38.23   38.23</time>
   <energy>
    <i name="e_fr_energy">   -208.85952731 </i>
    <i name="e_wo_entrp">   -208.85952731 </i>
    <i name="e_0_energy">   -208.85952731 </i>
   </energy>
  </scstep>
  <scstep>
   <time name="dav">   40.66   40.66</time>
   <time name="total">   42.80   42.80</time>
   <energy>
    <i name="e_fr_energy">   -208.85951868 </i>
    <i name="e_wo_entrp">   -208.85951868 </i>
    <i name="e_0_energy">   -208.85951868 </i>
   </energy>
  </scstep>
  <scstep>
   <time name="dav">   35.09   35.09</time>
   <time name="total">   37.23   37.23</time>
   <energy>
    <i name="e_fr_energy">   -208.85951823 </i>
    <i name="e_wo_entrp">   -208.85951823 </i>
    <i name="e_0_energy">   -208.85951823 </i>
   </energy>
  </scstep>
  <scstep>
   <time name="dav">   33.50   33.50</time>
   <time name="total">   35.64   35.64</time>
   <energy>
    <i name="e_fr_energy">   -208.85951833 </i>
    <i name="e_wo_entrp">   -208.85951833 </i>
    <i name="e_0_energy">   -208.85951833 </i>
   </energy>
  </scstep>
  <scstep>
   <time name="dav">   36.13   36.14</time>
   <time name="total">   38.28   38.28</time>
   <energy>
    <i name="e_fr_energy">   -208.85951836 </i>
    <i name="e_wo_entrp">   -208.85951836 </i>
    <i name="e_0_energy">   -208.85951836 </i>
   </energy>
  </scstep>
  <scstep>
   <time name="dav">   27.21   27.21</time>
   <time name="total">   29.35   29.35</time>
   <energy>
    <i name="e_fr_energy">   -208.85951850 </i>
    <i name="e_wo_entrp">   -208.85951850 </i>
    <i name="e_0_energy">   -208.85951850 </i>
   </energy>
  </scstep>
  <scstep>
   <time name="dav">   23.79   23.80</time>
   <time name="total">   25.93   25.94</time>
   <energy>
    <i name="e_fr_energy">   -208.85951858 </i>
    <i name="e_wo_entrp">   -208.85951858 </i>
    <i name="e_0_energy">   -208.85951858 </i>
   </energy>
  </scstep>
  <scstep>
   <time name="dav">   23.56   23.56</time>
   <time name="total">   24.41   24.41</time>
   <energy>
    <i name="alphaZ">   1328.36011859 </i>
    <i name="ewald"> -29443.85878275 </i>
    <i name="hartreedc"> -11559.02630086 </i>
    <i name="XCdc">   1251.48938553 </i>
    <i name="pawpsdc">  36248.24283180 </i>
    <i name="pawaedc"> -35644.28997728 </i>
    <i name="eentropy">     -0.00000000 </i>
    <i name="bandstr">  -2731.42863951 </i>
    <i name="atom">  40341.65184589 </i>
    <i name="e_fr_energy">   -208.85951858 </i>
    <i name="e_wo_entrp">   -208.85951858 </i>
    <i name="e_0_energy">   -208.85951858 </i>
   </energy>
  </scstep>
  <structure>
   <crystal>
    <varray name="basis" >
     <v>       7.83999502       0.00000000       0.00000000 </v>
     <v>       0.00000000       7.83999502       0.00000000 </v>
     <v>       0.00000000       0.00000000      12.37203443 </v>
    </varray>
    <i name="volume">    760.45355304 </i>
    <varray name="rec_basis" >
     <v>       0.12755110       0.00000000       0.00000000 </v>
     <v>       0.00000000       0.12755110       0.00000000 </v>
     <v>       0.00000000       0.00000000       0.08082745 </v>
    </varray>
   </crystal>
   <varray name="positions" >
    <v>       0.24891099       0.24891099       0.85428689 </v>
    <v>       0.75108901       0.24891099       0.85428689 </v>
    <v>       0.24891099       0.75108901       0.85428689 </v>
    <v>       0.75108901       0.75108901       0.85428689 </v>
    <v>       0.00000000       0.00000000       0.64671288 </v>
    <v>       0.50000000       0.00000000       0.64751054 </v>
    <v>       0.00000000       0.50000000       0.64751054 </v>
    <v>       0.50000000       0.50000000       0.64841183 </v>
    <v>       0.00000000       0.00000000       0.35328712 </v>
    <v>       0.50000000       0.00000000       0.35248946 </v>
    <v>       0.00000000       0.50000000       0.35248946 </v>
    <v>       0.50000000       0.50000000       0.35158817 </v>
    <v>       0.24891099       0.24891099       0.14571311 </v>
    <v>       0.75108901       0.24891099       0.14571311 </v>
    <v>       0.24891099       0.75108901       0.14571311 </v>
    <v>       0.75108901       0.75108901       0.14571311 </v>
    <v>       0.50000000       0.00000000       0.00000000 </v>
    <v>       0.00000000       0.50000000       0.00000000 </v>
    <v>       0.50000000       0.50000000       0.00000000 </v>
    <v>       0.25013772       0.25013772       0.50000000 </v>
    <v>       0.74986228       0.25013772       0.50000000 </v>
    <v>       0.25013772       0.74986228       0.50000000 </v>
    <v>       0.74986228       0.74986228       0.50000000 </v>
    <v>       0.00000000       0.24953536       0.75047321 </v>
    <v>       0.50000000       0.24967039       0.75139398 </v>
    <v>       0.00000000       0.75046464       0.75047321 </v>
    <v>       0.50000000       0.75032961       0.75139398 </v>
    <v>       0.24953536       0.00000000       0.75047321 </v>
    <v>       0.75046464       0.00000000       0.75047321 </v>
    <v>       0.24967039       0.50000000       0.75139398 </v>
    <v>       0.75032961       0.50000000       0.75139398 </v>
    <v>       0.24953536       0.00000000       0.24952679 </v>
    <v>       0.75046464       0.00000000       0.24952679 </v>
    <v>       0.24967039       0.50000000       0.24860602 </v>
    <v>       0.75032961       0.50000000       0.24860602 </v>
    <v>       0.00000000       0.24953536       0.24952679 </v>
    <v>       0.50000000       0.24967039       0.24860602 </v>
    <v>       0.00000000       0.75046464       0.24952679 </v>
    <v>       0.50000000       0.75032961       0.24860602 </v>
    <v>       0.00000000       0.00000000       0.00000000 </v>
   </varray>
  </structure>
  <varray name="forces" >
   <v>      -0.00000640      -0.00000640      -0.00004868 </v>
   <v>       0.00000640      -0.00000640      -0.00004868 </v>
   <v>      -0.00000640       0.00000640      -0.00004868 </v>
   <v>       0.00000640       0.00000640      -0.00004868 </v>
   <v>      -0.00000000       0.00000000       0.00003116 </v>
   <v>      -0.00000000       0.00000000       0.00008237 </v>
   <v>       0.00000000       0.00000000       0.00008237 </v>
   <v>       0.00000000       0.00000000       0.00007767 </v>
   <v>       0.00000000       0.00000000      -0.00003116 </v>
   <v>      -0.00000000       0.00000000      -0.00008237 </v>
   <v>      -0.00000000       0.00000000      -0.00008237 </v>
   <v>      -0.00000000       0.00000000      -0.00007767 </v>
   <v>      -0.00000640      -0.00000640       0.00004868 </v>
   <v>       0.00000640      -0.00000640       0.00004868 </v>
   <v>      -0.00000640       0.00000640       0.00004868 </v>
   <v>       0.00000640       0.00000640       0.00004868 </v>
   <v>       0.00000000       0.00000000       0.00000000 </v>
   <v>       0.00000000       0.00000000       0.00000000 </v>
   <v>      -0.00000000       0.00000000       0.00000000 </v>
   <v>       0.00000459       0.00000459       0.00000000 </v>
   <v>      -0.00000459       0.00000459       0.00000000 </v>
   <v>       0.00000459      -0.00000459       0.00000000 </v>
   <v>      -0.00000459      -0.00000459       0.00000000 </v>
   <v>       0.00000000      -0.00001394       0.00001616 </v>
   <v>       0.00000000      -0.00001919      -0.00002281 </v>
   <v>      -0.00000000       0.00001394       0.00001616 </v>
   <v>       0.00000000       0.00001919      -0.00002281 </v>
   <v>      -0.00001394       0.00000000       0.00001616 </v>
   <v>       0.00001394       0.00000000       0.00001616 </v>
   <v>      -0.00001919       0.00000000      -0.00002281 </v>
   <v>       0.00001919       0.00000000      -0.00002281 </v>
   <v>      -0.00001394       0.00000000      -0.00001616 </v>
   <v>       0.00001394       0.00000000      -0.00001616 </v>
   <v>      -0.00001919       0.00000000       0.00002281 </v>
   <v>       0.00001919       0.00000000       0.00002281 </v>
   <v>       0.00000000      -0.00001394      -0.00001616 </v>
   <v>      -0.00000000      -0.00001919       0.00002281 </v>
   <v>       0.00000000       0.00001394      -0.00001616 </v>
   <v>       0.00000000       0.00001919       0.00002281 </v>
   <v>      -0.00000000       0.00000000       0.00000000 </v>
  </varray>
  <varray name="stress" >
   <v>       0.06581032       0.00000000       0.00000000 </v>
   <v>       0.00000000       0.06581032       0.00000000 </v>
   <v>       0.00000000       0.00000000       0.07751554 </v>
  </varray>
  <energy>
   <i name="e_fr_energy">   -208.85951858 </i>
   <i name="e_wo_entrp">   -208.85951858 </i>
   <i name="e_0_energy">   -208.85951858 </i>
  </energy>
  <time name="totalsc">  899.89  900.02</time>
 </calculation>
 <calculation>
  <scstep>
   <time name="dav">   40.47   40.48</time>
   <time name="total">   42.62   42.63</time>
   <energy>
    <i name="alphaZ">   1328.20110157 </i>
    <i name="ewald"> -29442.63933868 </i>
    <i name="hartreedc"> -11558.60516648 </i>
    <i name="XCdc">   1251.43113112 </i>
    <i name="pawpsdc">  36248.25231519 </i>
    <i name="pawaedc"> -35644.29929811 </i>
    <i name="eentropy">     -0.00000000 </i>
    <i name="bandstr">  -2732.85216494 </i>
    <i name="atom">  40341.65184589 </i>
    <i name="e_fr_energy">   -208.85957445 </i>
    <i name="e_wo_entrp">   -208.85957445 </i>
    <i name="e_0_energy">   -208.85957445 </i>
   </energy>
  </scstep>
  <scstep>
   <time name="dav">   39.26   39.26</time>
   <time name="total">   41.40   41.40</time>
   <energy>
    <i name="e_fr_energy">   -208.85953394 </i>
    <i name="e_wo_entrp">   -208.85953394 </i>
    <i name="e_0_energy">   -208.85953394 </i>
   </energy>
  </scstep>
  <scstep>
   <time name="dav">   41.18   41.18</time>
   <time name="total">   43.32   43.32</time>
   <energy>
    <i name="e_fr_energy">   -208.85952710 </i>
    <i name="e_wo_entrp">   -208.85952710 </i>
    <i name="e_0_energy">   -208.85952710 </i>
   </energy>
  </scstep>
  <scstep>
   <time name="dav">   40.43   40.43</time>
   <time name="total">   42.57   42.58</time>
   <energy>
    <i name="e_fr_energy">   -208.85952482 </i>
    <i name="e_wo_entrp">   -208.85952482 </i>
    <i name="e_0_energy">   -208.85952482 </i>
   </energy>
  </scstep>
  <scstep>
   <time name="dav">   38.40   38.40</time>
   <time name="total">   40.54   40.54</time>
   <energy>
    <i name="e_fr_energy">   -208.85952434 </i>
    <i name="e_wo_entrp">   -208.85952434 </i>
    <i name="e_0_energy">   -208.85952434 </i>
   </energy>
  </scstep>
  <scstep>
   <time name="dav">   29.28   29.28</time>
   <time name="total">   31.42   31.42</time>
   <energy>
    <i name="e_fr_energy">   -208.85952322 </i>
    <i name="e_wo_entrp">   -208.85952322 </i>
    <i name="e_0_energy">   -208.85952322 </i>
   </energy>
  </scstep>
  <scstep>
   <time name="dav">   24.96   24.97</time>
   <time name="total">   27.11   27.11</time>
   <energy>
    <i name="e_fr_energy">   -208.85952248 </i>
    <i name="e_wo_entrp">   -208.85952248 </i>
    <i name="e_0_energy">   -208.85952248 </i>
   </energy>
  </scstep>
  <scstep>
   <time name="dav">   23.06   23.06</time>
   <time name="total">   23.92   23.92</time>
   <energy>
    <i name="alphaZ">   1328.20110157 </i>
    <i name="ewald"> -29442.63933868 </i>
    <i name="hartreedc"> -11559.60397100 </i>
    <i name="XCdc">   1251.47533594 </i>
    <i name="pawpsdc">  36247.16473400 </i>
    <i name="pawaedc"> -35643.20057672 </i>
    <i name="eentropy">     -0.00000000 </i>
    <i name="bandstr">  -2731.90865348 </i>
    <i name="atom">  40341.65184589 </i>
    <i name="e_fr_energy">   -208.85952247 </i>
    <i name="e_wo_entrp">   -208.85952247 </i>
    <i name="e_0_energy">   -208.85952247 </i>
   </energy>
  </scstep>
  <structure>
   <crystal>
    <varray name="basis" >
     <v>       7.84029037       0.00000000       0.00000000 </v>
     <v>       0.00000000       7.84029037       0.00000000 </v>
     <v>       0.00000000       0.00000000      12.37258342 </v>
    </varray>
    <i name="volume">    760.54459728 </i>
    <varray name="rec_basis" >
     <v>       0.12754630       0.00000000       0.00000000 </v>
     <v>       0.00000000       0.12754630       0.00000000 </v>
     <v>       0.00000000       0.00000000       0.08082386 </v>
    </varray>
   </crystal>
   <varray name="positions" >
    <v>       0.24891095       0.24891095       0.85428670 </v>
    <v>       0.75108905       0.24891095       0.85428670 </v>
    <v>       0.24891095       0.75108905       0.85428670 </v>
    <v>       0.75108905       0.75108905       0.85428670 </v>
    <v>       1.00000000       0.00000000       0.64671300 </v>
    <v>       0.50000000       0.00000000       0.64751086 </v>
    <v>       0.00000000       0.50000000       0.64751086 </v>
    <v>       0.50000000       0.50000000       0.64841214 </v>
    <v>       0.00000000       0.00000000       0.35328700 </v>
    <v>       0.50000000       0.00000000       0.35248914 </v>
    <v>       1.00000000       0.50000000       0.35248914 </v>
    <v>       0.50000000       0.50000000       0.35158786 </v>
    <v>       0.24891095       0.24891095       0.14571330 </v>
    <v>       0.75108905       0.24891095       0.14571330 </v>
    <v>       0.24891095       0.75108905       0.14571330 </v>
    <v>       0.75108905       0.75108905       0.14571330 </v>
    <v>       0.50000000       0.00000000       0.00000000 </v>
    <v>       0.00000000       0.50000000       0.00000000 </v>
    <v>       0.50000000       0.50000000       0.00000000 </v>
    <v>       0.25013774       0.25013774       0.50000000 </v>
    <v>       0.74986226       0.25013774       0.50000000 </v>
    <v>       0.25013774       0.74986226       0.50000000 </v>
    <v>       0.74986226       0.74986226       0.50000000 </v>
    <v>       0.00000000       0.24953528       0.75047327 </v>
    <v>       0.50000000       0.24967027       0.75139389 </v>
    <v>       1.00000000       0.75046472       0.75047327 </v>
    <v>       0.50000000       0.75032973       0.75139389 </v>
    <v>       0.24953528       0.00000000       0.75047327 </v>
    <v>       0.75046472       0.00000000       0.75047327 </v>
    <v>       0.24967027       0.50000000       0.75139389 </v>
    <v>       0.75032973       0.50000000       0.75139389 </v>
    <v>       0.24953528       0.00000000       0.24952673 </v>
    <v>       0.75046472       0.00000000       0.24952673 </v>
    <v>       0.24967027       0.50000000       0.24860611 </v>
    <v>       0.75032973       0.50000000       0.24860611 </v>
    <v>       0.00000000       0.24953528       0.24952673 </v>
    <v>       0.50000000       0.24967027       0.24860611 </v>
    <v>       0.00000000       0.75046472       0.24952673 </v>
    <v>       0.50000000       0.75032973       0.24860611 </v>
    <v>       1.00000000       0.00000000       0.00000000 </v>
   </varray>
  </structure>
  <varray name="forces" >
   <v>       0.00001064       0.00001064      -0.00136864 </v>
   <v>      -0.00001064       0.00001064      -0.00136864 </v>
   <v>       0.00001064      -0.00001064      -0.00136864 </v>
   <v>      -0.00001064      -0.00001064      -0.00136864 </v>
   <v>       0.00000000      -0.00000000       0.00134280 </v>
   <v>       0.00000000      -0.00000000       0.00135834 </v>
   <v>       0.00000000      -0.00000000       0.00135834 </v>
   <v>       0.00000000      -0.00000000       0.00138188 </v>
   <v>       0.00000000      -0.00000000      -0.00134280 </v>
   <v>       0.00000000      -0.00000000      -0.00135834 </v>
   <v>       0.00000000      -0.00000000      -0.00135834 </v>
   <v>       0.00000000      -0.00000000      -0.00138188 </v>
   <v>       0.00001064       0.00001064       0.00136864 </v>
   <v>      -0.00001064       0.00001064       0.00136864 </v>
   <v>       0.00001064      -0.00001064       0.00136864 </v>
   <v>      -0.00001064      -0.00001064       0.00136864 </v>
   <v>       0.00000000      -0.00000000      -0.00000000 </v>
   <v>       0.00000000      -0.00000000      -0.00000000 </v>
   <v>       0.00000000      -0.00000000      -0.00000000 </v>
   <v>      -0.00000498      -0.00000498      -0.00000000 </v>
   <v>       0.00000498      -0.00000498      -0.00000000 </v>
   <v>      -0.00000498       0.00000498      -0.00000000 </v>
   <v>       0.00000498       0.00000498      -0.00000000 </v>
   <v>       0.00000000      -0.00000822       0.00002827 </v>
   <v>       0.00000000      -0.00000874      -0.00001897 </v>
   <v>       0.00000000       0.00000822       0.00002827 </v>
   <v>       0.00000000       0.00000874      -0.00001897 </v>
   <v>      -0.00000822      -0.00000000       0.00002827 </v>
   <v>       0.00000822      -0.00000000       0.00002827 </v>
   <v>      -0.00000874      -0.00000000      -0.00001897 </v>
   <v>       0.00000874      -0.00000000      -0.00001897 </v>
   <v>      -0.00000822      -0.00000000      -0.00002827 </v>
   <v>       0.00000822      -0.00000000      -0.00002827 </v>
   <v>      -0.00000874      -0.00000000       0.00001897 </v>
   <v>       0.00000874      -0.00000000       0.00001897 </v>
   <v>       0.00000000      -0.00000822      -0.00002827 </v>
   <v>       0.00000000      -0.00000874       0.00001897 </v>
   <v>       0.00000000       0.00000822      -0.00002827 </v>
   <v>       0.00000000       0.00000874       0.00001897 </v>
   <v>       0.00000000      -0.00000000      -0.00000000 </v>
  </varray>
  <varray name="stress" >
   <v>      -0.05716129       0.00000000       0.00000000 </v>
   <v>       0.00000000      -0.05716129       0.00000000 </v>
   <v>       0.00000000       0.00000000      -0.03112039 </v>
  </varray>
  <energy>
   <i name="e_fr_energy">   -208.85952247 </i>
   <i name="e_wo_entrp">   -208.85952247 </i>
   <i name="e_0_energy">   -208.85952247 </i>
  </energy>
  <time name="totalsc">  326.93  326.95</time>
 </calculation>
 <calculation>
  <scstep>
   <time name="dav">   40.54   40.56</time>
   <time name="total">   42.68   42.70</time>
   <energy>
    <i name="alphaZ">   1328.21874079 </i>
    <i name="ewald"> -29442.77461215 </i>
    <i name="hartreedc"> -11559.65125964 </i>
    <i name="XCdc">   1251.48182785 </i>
    <i name="pawpsdc">  36247.16743548 </i>
    <i name="pawaedc"> -35643.20335309 </i>
    <i name="eentropy">     -0.00000000 </i>
    <i name="bandstr">  -2731.75014802 </i>
    <i name="atom">  40341.65184589 </i>
    <i name="e_fr_energy">   -208.85952289 </i>
    <i name="e_wo_entrp">   -208.85952289 </i>
    <i name="e_0_energy">   -208.85952289 </i>
   </energy>
  </scstep>
  <scstep>
   <time name="dav">   39.24   39.24</time>
   <time name="total">   41.38   41.38</time>
   <energy>
    <i name="e_fr_energy">   -208.85952210 </i>
    <i name="e_wo_entrp">   -208.85952210 </i>
    <i name="e_0_energy">   -208.85952210 </i>
   </energy>
  </scstep>
  <scstep>
   <time name="dav">   40.33   40.33</time>
   <time name="total">   42.47   42.48</time>
   <energy>
    <i name="e_fr_energy">   -208.85952197 </i>
    <i name="e_wo_entrp">   -208.85952197 </i>
    <i name="e_0_energy">   -208.85952197 </i>
   </energy>
  </scstep>
  <scstep>
   <time name="dav">   30.80   30.81</time>
   <time name="total">   32.95   32.95</time>
   <energy>
    <i name="e_fr_energy">   -208.85952214 </i>
    <i name="e_wo_entrp">   -208.85952214 </i>
    <i name="e_0_energy">   -208.85952214 </i>
   </energy>
  </scstep>
  <scstep>
   <time name="dav">   22.70   22.71</time>
   <time name="total">   24.84   24.85</time>
   <energy>
    <i name="e_fr_energy">   -208.85952219 </i>
    <i name="e_wo_entrp">   -208.85952219 </i>
    <i name="e_0_energy">   -208.85952219 </i>
   </energy>
  </scstep>
  <scstep>
   <time name="dav">   22.65   22.65</time>
   <time name="total">   24.79   24.79</time>
   <energy>
    <i name="e_fr_energy">   -208.85952236 </i>
    <i name="e_wo_entrp">   -208.85952236 </i>
    <i name="e_0_energy">   -208.85952236 </i>
   </energy>
  </scstep>
  <scstep>
   <time name="dav">   22.61   22.61</time>
   <time name="total">   24.75   24.75</time>
   <energy>
    <i name="e_fr_energy">   -208.85952240 </i>
    <i name="e_wo_entrp">   -208.85952240 </i>
    <i name="e_0_energy">   -208.85952240 </i>
   </energy>
  </scstep>
  <scstep>
   <time name="dav">   22.62   22.62</time>
   <time name="total">   24.76   24.76</time>
   <energy>
    <i name="e_fr_energy">   -208.85952242 </i>
    <i name="e_wo_entrp">   -208.85952242 </i>
    <i name="e_0_energy">   -208.85952242 </i>
   </energy>
  </scstep>
  <scstep>
   <time name="dav">   22.59   22.59</time>
   <time name="total">   23.44   23.45</time>
   <energy>
    <i name="alphaZ">   1328.21874079 </i>
    <i name="ewald"> -29442.77461215 </i>
    <i name="hartreedc"> -11559.54019444 </i>
    <i name="XCdc">   1251.47693048 </i>
    <i name="pawpsdc">  36247.29122104 </i>
    <i name="pawaedc"> -35643.32851616 </i>
    <i name="eentropy">     -0.00000000 </i>
    <i name="bandstr">  -2731.85493787 </i>
    <i name="atom">  40341.65184589 </i>
    <i name="e_fr_energy">   -208.85952242 </i>
    <i name="e_wo_entrp">   -208.85952242 </i>
    <i name="e_0_energy">   -208.85952242 </i>
   </energy>
  </scstep>
  <structure>
   <crystal>
    <varray name="basis" >
     <v>       7.84025761       0.00000000       0.00000000 </v>
     <v>       0.00000000       7.84025761       0.00000000 </v>
     <v>       0.00000000       0.00000000      12.37252252 </v>
    </varray>
    <i name="volume">    760.53449698 </i>
    <varray name="rec_basis" >
     <v>       0.12754683       0.00000000       0.00000000 </v>
     <v>       0.00000000       0.12754683       0.00000000 </v>
     <v>       0.00000000       0.00000000       0.08082426 </v>
    </varray>
   </crystal>
   <varray name="positions" >
    <v>       0.24891095       0.24891095       0.85428672 </v>
    <v>       0.75108905       0.24891095       0.85428672 </v>
    <v>       0.24891095       0.75108905       0.85428672 </v>
    <v>       0.75108905       0.75108905       0.85428672 </v>
    <v>       0.00000000       0.00000000       0.64671298 </v>
    <v>       0.50000000       0.00000000       0.64751082 </v>
    <v>       0.00000000       0.50000000       0.64751082 </v>
    <v>       0.50000000       0.50000000       0.64841210 </v>
    <v>       0.00000000       0.00000000       0.35328702 </v>
    <v>       0.50000000       0.00000000       0.35248918 </v>
    <v>       0.00000000       0.50000000       0.35248918 </v>
    <v>       0.50000000       0.50000000       0.35158790 </v>
    <v>       0.24891095       0.24891095       0.14571328 </v>
    <v>       0.75108905       0.24891095       0.14571328 </v>
    <v>       0.24891095       0.75108905       0.14571328 </v>
    <v>       0.75108905       0.75108905       0.14571328 </v>
    <v>       0.50000000       0.00000000       0.00000000 </v>
    <v>       0.00000000       0.50000000       0.00000000 </v>
    <v>       0.50000000       0.50000000       0.00000000 </v>
    <v>       0.25013774       0.25013774       0.50000000 </v>
    <v>       0.74986226       0.25013774       0.50000000 </v>
    <v>       0.25013774       0.74986226       0.50000000 </v>
    <v>       0.74986226       0.74986226       0.50000000 </v>
    <v>       0.00000000       0.24953529       0.75047327 </v>
    <v>       0.50000000       0.24967028       0.75139390 </v>
    <v>       0.00000000       0.75046471       0.75047327 </v>
    <v>       0.50000000       0.75032972       0.75139390 </v>
    <v>       0.24953529       0.00000000       0.75047327 </v>
    <v>       0.75046471       0.00000000       0.75047327 </v>
    <v>       0.24967028       0.50000000       0.75139390 </v>
    <v>       0.75032972       0.50000000       0.75139390 </v>
    <v>       0.24953529       0.00000000       0.24952673 </v>
    <v>       0.75046471       0.00000000       0.24952673 </v>
    <v>       0.24967028       0.50000000       0.24860610 </v>
    <v>       0.75032972       0.50000000       0.24860610 </v>
    <v>       0.00000000       0.24953529       0.24952673 </v>
    <v>       0.50000000       0.24967028       0.24860610 </v>
    <v>       0.00000000       0.75046471       0.24952673 </v>
    <v>       0.50000000       0.75032972       0.24860610 </v>
    <v>       0.00000000       0.00000000       0.00000000 </v>
   </varray>
  </structure>
  <varray name="forces" >
   <v>       0.00000685       0.00000685      -0.00124689 </v>
   <v>      -0.00000685       0.00000685      -0.00124689 </v>
   <v>       0.00000685      -0.00000685      -0.00124689 </v>
   <v>      -0.00000685      -0.00000685      -0.00124689 </v>
   <v>       0.00000000       0.00000000       0.00121436 </v>
   <v>       0.00000000       0.00000000       0.00125482 </v>
   <v>       0.00000000       0.00000000       0.00125482 </v>
   <v>       0.00000000       0.00000000       0.00127378 </v>
   <v>      -0.00000000       0.00000000      -0.00121436 </v>
   <v>      -0.00000000       0.00000000      -0.00125482 </v>
   <v>       0.00000000       0.00000000      -0.00125482 </v>
   <v>       0.00000000       0.00000000      -0.00127378 </v>
   <v>       0.00000685       0.00000685       0.00124689 </v>
   <v>      -0.00000685       0.00000685       0.00124689 </v>
   <v>       0.00000685      -0.00000685       0.00124689 </v>
   <v>      -0.00000685      -0.00000685       0.00124689 </v>
   <v>       0.00000000       0.00000000       0.00000000 </v>
   <v>      -0.00000000       0.00000000       0.00000000 </v>
   <v>       0.00000000       0.00000000       0.00000000 </v>
   <v>      -0.00000363      -0.00000363       0.00000000 </v>
   <v>       0.00000363      -0.00000363       0.00000000 </v>
   <v>      -0.00000363       0.00000363       0.00000000 </v>
   <v>       0.00000363       0.00000363       0.00000000 </v>
   <v>      -0.00000000      -0.00000906       0.00002715 </v>
   <v>       0.00000000      -0.00001025      -0.00001989 </v>
   <v>      -0.00000000       0.00000906       0.00002715 </v>
   <v>      -0.00000000       0.00001025      -0.00001989 </v>
   <v>      -0.00000906       0.00000000       0.00002715 </v>
   <v>       0.00000906       0.00000000       0.00002715 </v>
   <v>      -0.00001025       0.00000000      -0.00001989 </v>
   <v>       0.00001025       0.00000000      -0.00001989 </v>
   <v>      -0.00000906       0.00000000      -0.00002715 </v>
   <v>       0.00000906       0.00000000      -0.00002715 </v>
   <v>      -0.00001025       0.00000000       0.00001989 </v>
   <v>       0.00001025       0.00000000       0.00001989 </v>
   <v>      -0.00000000      -0.00000906      -0.00002715 </v>
   <v>      -0.00000000      -0.00001025       0.00001989 </v>
   <v>       0.00000000       0.00000906      -0.00002715 </v>
   <v>       0.00000000       0.00001025       0.00001989 </v>
   <v>       0.00000000       0.00000000       0.00000000 </v>
  </varray>
  <varray name="stress" >
   <v>      -0.04591113       0.00000000       0.00000000 </v>
   <v>       0.00000000      -0.04591113       0.00000000 </v>
   <v>       0.00000000       0.00000000      -0.02125880 </v>
  </varray>
  <energy>
   <i name="e_fr_energy">   -208.85952242 </i>
   <i name="e_wo_entrp">   -208.85952242 </i>
   <i name="e_0_energy">   -208.85952242 </i>
  </energy>
  <time name="totalsc">  316.14  316.19</time>
 </calculation>
 <calculation>
  <scstep>
   <time name="dav">   40.47   40.47</time>
   <time name="total">   42.61   42.62</time>
   <energy>
    <i name="alphaZ">   1328.26646017 </i>
    <i name="ewald"> -29443.14056149 </i>
    <i name="hartreedc"> -11559.66640019 </i>
    <i name="XCdc">   1251.49439758 </i>
    <i name="pawpsdc">  36247.29105307 </i>
    <i name="pawaedc"> -35643.32833326 </i>
    <i name="eentropy">     -0.00000000 </i>
    <i name="bandstr">  -2731.42798771 </i>
    <i name="atom">  40341.65184589 </i>
    <i name="e_fr_energy">   -208.85952593 </i>
    <i name="e_wo_entrp">   -208.85952593 </i>
    <i name="e_0_energy">   -208.85952593 </i>
   </energy>
  </scstep>
  <scstep>
   <time name="dav">   39.22   39.23</time>
   <time name="total">   41.36   41.37</time>
   <energy>
    <i name="e_fr_energy">   -208.85952137 </i>
    <i name="e_wo_entrp">   -208.85952137 </i>
    <i name="e_0_energy">   -208.85952137 </i>
   </energy>
  </scstep>
  <scstep>
   <time name="dav">   41.13   41.12</time>
   <time name="total">   43.27   43.27</time>
   <energy>
    <i name="e_fr_energy">   -208.85952056 </i>
    <i name="e_wo_entrp">   -208.85952056 </i>
    <i name="e_0_energy">   -208.85952056 </i>
   </energy>
  </scstep>
  <scstep>
   <time name="dav">   39.71   39.71</time>
   <time name="total">   41.85   41.85</time>
   <energy>
    <i name="e_fr_energy">   -208.85952099 </i>
    <i name="e_wo_entrp">   -208.85952099 </i>
    <i name="e_0_energy">   -208.85952099 </i>
   </energy>
  </scstep>
  <scstep>
   <time name="dav">   26.78   26.79</time>
   <time name="total">   28.92   28.93</time>
   <energy>
    <i name="e_fr_energy">   -208.85952115 </i>
    <i name="e_wo_entrp">   -208.85952115 </i>
    <i name="e_0_energy">   -208.85952115 </i>
   </energy>
  </scstep>
  <scstep>
   <time name="dav">   22.51   22.50</time>
   <time name="total">   24.65   24.65</time>
   <energy>
    <i name="e_fr_energy">   -208.85952151 </i>
    <i name="e_wo_entrp">   -208.85952151 </i>
    <i name="e_0_energy">   -208.85952151 </i>
   </energy>
  </scstep>
  <scstep>
   <time name="dav">   22.42   22.43</time>
   <time name="total">   24.57   24.57</time>
   <energy>
    <i name="e_fr_energy">   -208.85952172 </i>
    <i name="e_wo_entrp">   -208.85952172 </i>
    <i name="e_0_energy">   -208.85952172 </i>
   </energy>
  </scstep>
  <scstep>
   <time name="dav">   22.29   22.29</time>
   <time name="total">   24.43   24.43</time>
   <energy>
    <i name="e_fr_energy">   -208.85952173 </i>
    <i name="e_wo_entrp">   -208.85952173 </i>
    <i name="e_0_energy">   -208.85952173 </i>
   </energy>
  </scstep>
  <scstep>
   <time name="dav">   22.28   22.28</time>
   <time name="total">   24.41   24.42</time>
   <energy>
    <i name="e_fr_energy">   -208.85952171 </i>
    <i name="e_wo_entrp">   -208.85952171 </i>
    <i name="e_0_energy">   -208.85952171 </i>
   </energy>
  </scstep>
  <scstep>
   <time name="dav">   22.27   22.28</time>
   <time name="total">   23.12   23.14</time>
   <energy>
    <i name="alphaZ">   1328.26646017 </i>
    <i name="ewald"> -29443.14056149 </i>
    <i name="hartreedc"> -11559.36650638 </i>
    <i name="XCdc">   1251.48112175 </i>
    <i name="pawpsdc">  36247.61218879 </i>
    <i name="pawaedc"> -35643.65280764 </i>
    <i name="eentropy">     -0.00000000 </i>
    <i name="bandstr">  -2731.71126281 </i>
    <i name="atom">  40341.65184589 </i>
    <i name="e_fr_energy">   -208.85952171 </i>
    <i name="e_wo_entrp">   -208.85952171 </i>
    <i name="e_0_energy">   -208.85952171 </i>
   </energy>
  </scstep>
  <structure>
   <crystal>
    <varray name="basis" >
     <v>       7.84016897       0.00000000       0.00000000 </v>
     <v>       0.00000000       7.84016897       0.00000000 </v>
     <v>       0.00000000       0.00000000      12.37235777 </v>
    </varray>
    <i name="volume">    760.50717397 </i>
    <varray name="rec_basis" >
     <v>       0.12754827       0.00000000       0.00000000 </v>
     <v>       0.00000000       0.12754827       0.00000000 </v>
     <v>       0.00000000       0.00000000       0.08082534 </v>
    </varray>
   </crystal>
   <varray name="positions" >
    <v>       0.24891097       0.24891097       0.85428678 </v>
    <v>       0.75108903       0.24891097       0.85428678 </v>
    <v>       0.24891097       0.75108903       0.85428678 </v>
    <v>       0.75108903       0.75108903       0.85428678 </v>
    <v>       0.00000000       0.00000000       0.64671295 </v>
    <v>       0.50000000       0.00000000       0.64751073 </v>
    <v>       0.00000000       0.50000000       0.64751073 </v>
    <v>       0.50000000       0.50000000       0.64841201 </v>
    <v>       0.00000000       0.00000000       0.35328705 </v>
    <v>       0.50000000       0.00000000       0.35248927 </v>
    <v>       0.00000000       0.50000000       0.35248927 </v>
    <v>       0.50000000       0.50000000       0.35158799 </v>
    <v>       0.24891097       0.24891097       0.14571322 </v>
    <v>       0.75108903       0.24891097       0.14571322 </v>
    <v>       0.24891097       0.75108903       0.14571322 </v>
    <v>       0.75108903       0.75108903       0.14571322 </v>
    <v>       0.50000000       0.00000000       0.00000000 </v>
    <v>       0.00000000       0.50000000       0.00000000 </v>
    <v>       0.50000000       0.50000000       0.00000000 </v>
    <v>       0.25013773       0.25013773       0.50000000 </v>
    <v>       0.74986227       0.25013773       0.50000000 </v>
    <v>       0.25013773       0.74986227       0.50000000 </v>
    <v>       0.74986227       0.74986227       0.50000000 </v>
    <v>       0.00000000       0.24953531       0.75047325 </v>
    <v>       0.50000000       0.24967032       0.75139392 </v>
    <v>       0.00000000       0.75046469       0.75047325 </v>
    <v>       0.50000000       0.75032968       0.75139392 </v>
    <v>       0.24953531       0.00000000       0.75047325 </v>
    <v>       0.75046469       0.00000000       0.75047325 </v>
    <v>       0.24967032       0.50000000       0.75139392 </v>
    <v>       0.75032968       0.50000000       0.75139392 </v>
    <v>       0.24953531       0.00000000       0.24952675 </v>
    <v>       0.75046469       0.00000000       0.24952675 </v>
    <v>       0.24967032       0.50000000       0.24860608 </v>
    <v>       0.75032968       0.50000000       0.24860608 </v>
    <v>       0.00000000       0.24953531       0.24952675 </v>
    <v>       0.50000000       0.24967032       0.24860608 </v>
    <v>       0.00000000       0.75046469       0.24952675 </v>
    <v>       0.50000000       0.75032968       0.24860608 </v>
    <v>       0.00000000       0.00000000       0.00000000 </v>
   </varray>
  </structure>
  <varray name="forces" >
   <v>       0.00000466       0.00000466      -0.00085146 </v>
   <v>      -0.00000466       0.00000466      -0.00085146 </v>
   <v>       0.00000466      -0.00000466      -0.00085146 </v>
   <v>      -0.00000466      -0.00000466      -0.00085146 </v>
   <v>       0.00000000       0.00000000       0.00082006 </v>
   <v>      -0.00000000       0.00000000       0.00087148 </v>
   <v>      -0.00000000      -0.00000000       0.00087148 </v>
   <v>      -0.00000000      -0.00000000       0.00088776 </v>
   <v>      -0.00000000      -0.00000000      -0.00082006 </v>
   <v>       0.00000000       0.00000000      -0.00087148 </v>
   <v>       0.00000000      -0.00000000      -0.00087148 </v>
   <v>      -0.00000000      -0.00000000      -0.00088776 </v>
   <v>       0.00000466       0.00000466       0.00085146 </v>
   <v>      -0.00000466       0.00000466       0.00085146 </v>
   <v>       0.00000466      -0.00000466       0.00085146 </v>
   <v>      -0.00000466      -0.00000466       0.00085146 </v>
   <v>       0.00000000       0.00000000      -0.00000000 </v>
   <v>      -0.00000000       0.00000000      -0.00000000 </v>
   <v>      -0.00000000       0.00000000      -0.00000000 </v>
   <v>      -0.00000057      -0.00000057      -0.00000000 </v>
   <v>       0.00000057      -0.00000057      -0.00000000 </v>
   <v>      -0.00000057       0.00000057      -0.00000000 </v>
   <v>       0.00000057       0.00000057      -0.00000000 </v>
   <v>      -0.00000000      -0.00001076       0.00002354 </v>
   <v>       0.00000000      -0.00001355      -0.00002077 </v>
   <v>       0.00000000       0.00001076       0.00002354 </v>
   <v>       0.00000000       0.00001355      -0.00002077 </v>
   <v>      -0.00001076       0.00000000       0.00002354 </v>
   <v>       0.00001076      -0.00000000       0.00002354 </v>
   <v>      -0.00001355      -0.00000000      -0.00002077 </v>
   <v>       0.00001355      -0.00000000      -0.00002077 </v>
   <v>      -0.00001076      -0.00000000      -0.00002354 </v>
   <v>       0.00001076      -0.00000000      -0.00002354 </v>
   <v>      -0.00001355       0.00000000       0.00002077 </v>
   <v>       0.00001355       0.00000000       0.00002077 </v>
   <v>      -0.00000000      -0.00001076      -0.00002354 </v>
   <v>      -0.00000000      -0.00001355       0.00002077 </v>
   <v>       0.00000000       0.00001076      -0.00002354 </v>
   <v>       0.00000000       0.00001355       0.00002077 </v>
   <v>      -0.00000000      -0.00000000      -0.00000000 </v>
  </varray>
  <varray name="stress" >
   <v>      -0.00792164       0.00000000       0.00000000 </v>
   <v>       0.00000000      -0.00792164       0.00000000 </v>
   <v>       0.00000000       0.00000000       0.01226419 </v>
  </varray>
  <energy>
   <i name="e_fr_energy">   -208.85952171 </i>
   <i name="e_wo_entrp">   -208.85952171 </i>
   <i name="e_0_energy">   -208.85952171 </i>
  </energy>
  <time name="totalsc">  353.06  353.12</time>
 </calculation>
 <calculation>
  <scstep>
   <time name="dav">   42.49   42.49</time>
   <time name="total">   44.63   44.64</time>
   <energy>
    <i name="alphaZ">   1328.24597230 </i>
    <i name="ewald"> -29442.66427458 </i>
    <i name="hartreedc"> -11559.61331305 </i>
    <i name="XCdc">   1251.47448307 </i>
    <i name="pawpsdc">  36247.61269347 </i>
    <i name="pawaedc"> -35643.65328750 </i>
    <i name="eentropy">     -0.00000000 </i>
    <i name="bandstr">  -2731.91364331 </i>
    <i name="atom">  40341.65184589 </i>
    <i name="e_fr_energy">   -208.85952371 </i>
    <i name="e_wo_entrp">   -208.85952371 </i>
    <i name="e_0_energy">   -208.85952371 </i>
   </energy>
  </scstep>
  <scstep>
   <time name="dav">   39.60   39.60</time>
   <time name="total">   41.74   41.74</time>
   <energy>
    <i name="e_fr_energy">   -208.85952344 </i>
    <i name="e_wo_entrp">   -208.85952344 </i>
    <i name="e_0_energy">   -208.85952344 </i>
   </energy>
  </scstep>
  <scstep>
   <time name="dav">   40.24   40.25</time>
   <time name="total">   42.38   42.39</time>
   <energy>
    <i name="e_fr_energy">   -208.85952330 </i>
    <i name="e_wo_entrp">   -208.85952330 </i>
    <i name="e_0_energy">   -208.85952330 </i>
   </energy>
  </scstep>
  <scstep>
   <time name="dav">   35.08   35.08</time>
   <time name="total">   37.22   37.22</time>
   <energy>
    <i name="e_fr_energy">   -208.85952303 </i>
    <i name="e_wo_entrp">   -208.85952303 </i>
    <i name="e_0_energy">   -208.85952303 </i>
   </energy>
  </scstep>
  <scstep>
   <time name="dav">   23.49   23.51</time>
   <time name="total">   25.63   25.65</time>
   <energy>
    <i name="e_fr_energy">   -208.85952283 </i>
    <i name="e_wo_entrp">   -208.85952283 </i>
    <i name="e_0_energy">   -208.85952283 </i>
   </energy>
  </scstep>
  <scstep>
   <time name="dav">   22.38   22.39</time>
   <time name="total">   24.52   24.53</time>
   <energy>
    <i name="e_fr_energy">   -208.85952273 </i>
    <i name="e_wo_entrp">   -208.85952273 </i>
    <i name="e_0_energy">   -208.85952273 </i>
   </energy>
  </scstep>
  <scstep>
   <time name="dav">   22.35   22.36</time>
   <time name="total">   24.49   24.50</time>
   <energy>
    <i name="e_fr_energy">   -208.85952271 </i>
    <i name="e_wo_entrp">   -208.85952271 </i>
    <i name="e_0_energy">   -208.85952271 </i>
   </energy>
  </scstep>
  <scstep>
   <time name="dav">   22.15   22.15</time>
   <time name="total">   23.00   23.01</time>
   <energy>
    <i name="alphaZ">   1328.24597230 </i>
    <i name="ewald"> -29442.66427458 </i>
    <i name="hartreedc"> -11559.74829527 </i>
    <i name="XCdc">   1251.48086346 </i>
    <i name="pawpsdc">  36247.59190231 </i>
    <i name="pawaedc"> -35643.63213303 </i>
    <i name="eentropy">     -0.00000000 </i>
    <i name="bandstr">  -2731.78540380 </i>
    <i name="atom">  40341.65184589 </i>
    <i name="e_fr_energy">   -208.85952271 </i>
    <i name="e_wo_entrp">   -208.85952271 </i>
    <i name="e_0_energy">   -208.85952271 </i>
   </energy>
  </scstep>
  <structure>
   <crystal>
    <varray name="basis" >
     <v>       7.84017903       0.00000000       0.00000000 </v>
     <v>       0.00000000       7.84017903       0.00000000 </v>
     <v>       0.00000000       0.00000000      12.37251685 </v>
    </varray>
    <i name="volume">    760.51890461 </i>
    <varray name="rec_basis" >
     <v>       0.12754811       0.00000000      -0.00000000 </v>
     <v>       0.00000000       0.12754811       0.00000000 </v>
     <v>      -0.00000000       0.00000000       0.08082430 </v>
    </varray>
   </crystal>
   <varray name="positions" >
    <v>       0.24891099       0.24891099       0.85428371 </v>
    <v>       0.75108901       0.24891099       0.85428371 </v>
    <v>       0.24891099       0.75108901       0.85428371 </v>
    <v>       0.75108901       0.75108901       0.85428371 </v>
    <v>       0.00000000       0.00000000       0.64671590 </v>
    <v>       0.50000000       0.00000000       0.64751389 </v>
    <v>       1.00000000       0.50000000       0.64751389 </v>
    <v>       0.50000000       0.50000000       0.64841523 </v>
    <v>       1.00000000       0.00000000       0.35328410 </v>
    <v>       0.50000000       0.00000000       0.35248611 </v>
    <v>       0.00000000       0.50000000       0.35248611 </v>
    <v>       0.50000000       0.50000000       0.35158477 </v>
    <v>       0.24891099       0.24891099       0.14571629 </v>
    <v>       0.75108901       0.24891099       0.14571629 </v>
    <v>       0.24891099       0.75108901       0.14571629 </v>
    <v>       0.75108901       0.75108901       0.14571629 </v>
    <v>       0.50000000       0.00000000       1.00000000 </v>
    <v>       1.00000000       0.50000000       1.00000000 </v>
    <v>       0.50000000       0.50000000       1.00000000 </v>
    <v>       0.25013773       0.25013773       0.50000000 </v>
    <v>       0.74986227       0.25013773       0.50000000 </v>
    <v>       0.25013773       0.74986227       0.50000000 </v>
    <v>       0.74986227       0.74986227       0.50000000 </v>
    <v>       1.00000000       0.24953524       0.75047334 </v>
    <v>       0.50000000       0.24967023       0.75139384 </v>
    <v>       0.00000000       0.75046476       0.75047334 </v>
    <v>       0.50000000       0.75032977       0.75139384 </v>
    <v>       0.24953524       0.00000000       0.75047334 </v>
    <v>       0.75046476       0.00000000       0.75047334 </v>
    <v>       0.24967023       0.50000000       0.75139384 </v>
    <v>       0.75032977       0.50000000       0.75139384 </v>
    <v>       0.24953524       0.00000000       0.24952666 </v>
    <v>       0.75046476       0.00000000       0.24952666 </v>
    <v>       0.24967023       0.50000000       0.24860616 </v>
    <v>       0.75032977       0.50000000       0.24860616 </v>
    <v>       1.00000000       0.24953524       0.24952666 </v>
    <v>       0.50000000       0.24967023       0.24860616 </v>
    <v>       0.00000000       0.75046476       0.24952666 </v>
    <v>       0.50000000       0.75032977       0.24860616 </v>
    <v>       1.00000000       0.00000000       1.00000000 </v>
   </varray>
  </structure>
  <varray name="forces" >
   <v>       0.00000825       0.00000825      -0.00029566 </v>
   <v>      -0.00000825       0.00000825      -0.00029566 </v>
   <v>       0.00000825      -0.00000825      -0.00029566 </v>
   <v>      -0.00000825      -0.00000825      -0.00029566 </v>
   <v>       0.00000000       0.00000000       0.00027814 </v>
   <v>       0.00000000      -0.00000000       0.00030551 </v>
   <v>       0.00000000       0.00000000       0.00030551 </v>
   <v>       0.00000000      -0.00000000       0.00031699 </v>
   <v>      -0.00000000       0.00000000      -0.00027814 </v>
   <v>      -0.00000000       0.00000000      -0.00030551 </v>
   <v>      -0.00000000       0.00000000      -0.00030551 </v>
   <v>      -0.00000000       0.00000000      -0.00031699 </v>
   <v>       0.00000825       0.00000825       0.00029566 </v>
   <v>      -0.00000825       0.00000825       0.00029566 </v>
   <v>       0.00000825      -0.00000825       0.00029566 </v>
   <v>      -0.00000825      -0.00000825       0.00029566 </v>
   <v>       0.00000000      -0.00000000      -0.00000000 </v>
   <v>      -0.00000000      -0.00000000      -0.00000000 </v>
   <v>       0.00000000      -0.00000000      -0.00000000 </v>
   <v>      -0.00000475      -0.00000475      -0.00000000 </v>
   <v>       0.00000475      -0.00000475      -0.00000000 </v>
   <v>      -0.00000475       0.00000475      -0.00000000 </v>
   <v>       0.00000475       0.00000475      -0.00000000 </v>
   <v>       0.00000000      -0.00000576       0.00001736 </v>
   <v>      -0.00000000      -0.00000475      -0.00000771 </v>
   <v>       0.00000000       0.00000576       0.00001736 </v>
   <v>      -0.00000000       0.00000475      -0.00000771 </v>
   <v>      -0.00000576      -0.00000000       0.00001736 </v>
   <v>       0.00000576      -0.00000000       0.00001736 </v>
   <v>      -0.00000475       0.00000000      -0.00000771 </v>
   <v>       0.00000475       0.00000000      -0.00000771 </v>
   <v>      -0.00000576       0.00000000      -0.00001736 </v>
   <v>       0.00000576       0.00000000      -0.00001736 </v>
   <v>      -0.00000475      -0.00000000       0.00000771 </v>
   <v>       0.00000475      -0.00000000       0.00000771 </v>
   <v>      -0.00000000      -0.00000576      -0.00001736 </v>
   <v>       0.00000000      -0.00000475       0.00000771 </v>
   <v>      -0.00000000       0.00000576      -0.00001736 </v>
   <v>       0.00000000       0.00000475       0.00000771 </v>
   <v>       0.00000000      -0.00000000      -0.00000000 </v>
  </varray>
  <varray name="stress" >
   <v>      -0.00544637       0.00000000      -0.00000000 </v>
   <v>       0.00000000      -0.00544637       0.00000000 </v>
   <v>       0.00000000       0.00000000       0.00909099 </v>
  </varray>
  <energy>
   <i name="e_fr_energy">   -208.85952271 </i>
   <i name="e_wo_entrp">   -208.85952271 </i>
   <i name="e_0_energy">   -208.85952271 </i>
  </energy>
  <time name="totalsc">  297.44  297.50</time>
 </calculation>
 <calculation>
  <scstep>
   <time name="dav">   38.95   38.95</time>
   <time name="total">   41.09   41.09</time>
   <energy>
    <i name="alphaZ">   1328.24479891 </i>
    <i name="ewald"> -29442.63699545 </i>
    <i name="hartreedc"> -11559.76239254 </i>
    <i name="XCdc">   1251.48048123 </i>
    <i name="pawpsdc">  36247.59164820 </i>
    <i name="pawaedc"> -35643.63193551 </i>
    <i name="eentropy">     -0.00000000 </i>
    <i name="bandstr">  -2731.79697350 </i>
    <i name="atom">  40341.65184589 </i>
    <i name="e_fr_energy">   -208.85952276 </i>
    <i name="e_wo_entrp">   -208.85952276 </i>
    <i name="e_0_energy">   -208.85952276 </i>
   </energy>
  </scstep>
  <scstep>
   <time name="dav">   22.25   22.25</time>
   <time name="total">   24.38   24.39</time>
   <energy>
    <i name="e_fr_energy">   -208.85952279 </i>
    <i name="e_wo_entrp">   -208.85952279 </i>
    <i name="e_0_energy">   -208.85952279 </i>
   </energy>
  </scstep>
  <scstep>
   <time name="dav">   22.08   22.09</time>
   <time name="total">   24.22   24.22</time>
   <energy>
    <i name="e_fr_energy">   -208.85952278 </i>
    <i name="e_wo_entrp">   -208.85952278 </i>
    <i name="e_0_energy">   -208.85952278 </i>
   </energy>
  </scstep>
  <scstep>
[...]
       <r>    5.9548    1.0000 </r>
       <r>    5.9702    1.0000 </r>
       <r>    7.9859    0.0000 </r>
       <r>    8.0129    0.0000 </r>
       <r>    8.0129    0.0000 </r>
       <r>    8.0468    0.0000 </r>
       <r>    8.7429    0.0000 </r>
       <r>    8.7732    0.0000 </r>
       <r>    8.7732    0.0000 </r>
       <r>    8.8058    0.0000 </r>
       <r>    9.2138    0.0000 </r>
       <r>    9.2237    0.0000 </r>
       <r>    9.2435    0.0000 </r>
       <r>    9.2435    0.0000 </r>
       <r>    9.5229    0.0000 </r>
       <r>    9.5383    0.0000 </r>
       <r>    9.5646    0.0000 </r>
       <r>    9.5646    0.0000 </r>
       <r>    9.7500    0.0000 </r>
       <r>    9.7500    0.0000 </r>
       <r>    9.7823    0.0000 </r>
       <r>    9.8182    0.0000 </r>
       <r>    9.8184    0.0000 </r>
       <r>    9.8233    0.0000 </r>
       <r>    9.8233    0.0000 </r>
       <r>    9.8456    0.0000 </r>
       <r>   10.6544    0.0000 </r>
       <r>   10.6544    0.0000 </r>
       <r>   10.6730    0.0000 </r>
       <r>   10.6897    0.0000 </r>
       <r>   10.7215    0.0000 </r>
       <r>   10.7215    0.0000 </r>
       <r>   10.7217    0.0000 </r>
       <r>   10.7294    0.0000 </r>
       <r>   11.2990    0.0000 </r>
       <r>   11.3169    0.0000 </r>
       <r>   11.3169    0.0000 </r>
       <r>   11.3779    0.0000 </r>
       <r>   11.3900    0.0000 </r>
       <r>   11.3900    0.0000 </r>
       <r>   11.4148    0.0000 </r>
       <r>   11.4160    0.0000 </r>
      </set>
     </set>
    </set>
   </array>
  </eigenvalues>
  <separator name="orbital magnetization" >
   <v name="MAGDIPOLOUT">      0.00000000      0.00000000      0.00000000</v>
  </separator>
  <dos>
   <i name="efermi">      6.53604226 </i>
   <total>
    <array>
     <dimension dim="1">gridpoints</dimension>
     <dimension dim="2">spin</dimension>
     <field>energy</field>
     <field>total</field>
     <field>integrated</field>
     <set>
      <set comment="spin 1">
       <r>   -18.1845     0.0000     0.0000 </r>
       <r>   -18.0804     0.0000     0.0000 </r>
       <r>   -17.9762     0.0000     0.0000 </r>
       <r>   -17.8721     0.0000     0.0000 </r>
       <r>   -17.7679     0.0000     0.0000 </r>
       <r>   -17.6638     0.0000     0.0000 </r>
       <r>   -17.5597     0.0000     0.0000 </r>
       <r>   -17.4555     0.0000     0.0000 </r>
       <r>   -17.3514     0.0000     0.0000 </r>
       <r>   -17.2472     0.0000     0.0000 </r>
       <r>   -17.1431     0.0000     0.0000 </r>
       <r>   -17.0389     0.0000     0.0000 </r>
       <r>   -16.9348     0.0000     0.0000 </r>
       <r>   -16.8307     1.4178     0.1477 </r>
       <r>   -16.7265   125.4615    13.2134 </r>
       <r>   -16.6224   219.2039    36.0417 </r>
       <r>   -16.5182   919.4846   131.7985 </r>
       <r>   -16.4141   270.3602   159.9543 </r>
       <r>   -16.3100     0.4392   160.0000 </r>
       <r>   -16.2058     0.0000   160.0000 </r>
       <r>   -16.1017     0.0000   160.0000 </r>
       <r>   -15.9975     0.0000   160.0000 </r>
       <r>   -15.8934     0.0000   160.0000 </r>
       <r>   -15.7892     0.0000   160.0000 </r>
       <r>   -15.6851     0.0000   160.0000 </r>
       <r>   -15.5810     0.0000   160.0000 </r>
       <r>   -15.4768     0.0000   160.0000 </r>
       <r>   -15.3727     0.0000   160.0000 </r>
       <r>   -15.2685     0.0000   160.0000 </r>
       <r>   -15.1644     0.0000   160.0000 </r>
       <r>   -15.0603     0.0000   160.0000 </r>
       <r>   -14.9561     0.0000   160.0000 </r>
       <r>   -14.8520     0.0000   160.0000 </r>
       <r>   -14.7478     0.0000   160.0000 </r>
       <r>   -14.6437     0.0000   160.0000 </r>
       <r>   -14.5395     0.0000   160.0000 </r>
       <r>   -14.4354     0.0000   160.0000 </r>
       <r>   -14.3313     0.0000   160.0000 </r>
       <r>   -14.2271     0.0000   160.0000 </r>
       <r>   -14.1230     0.0000   160.0000 </r>
       <r>   -14.0188     0.0000   160.0000 </r>
       <r>   -13.9147     0.0000   160.0000 </r>
       <r>   -13.8106     0.0000   160.0000 </r>
       <r>   -13.7064     0.0000   160.0000 </r>
       <r>   -13.6023     0.0000   160.0000 </r>
       <r>   -13.4981     0.0000   160.0000 </r>
       <r>   -13.3940     0.0000   160.0000 </r>
       <r>   -13.2898     0.0000   160.0000 </r>
       <r>   -13.1857     0.0000   160.0000 </r>
       <r>   -13.0816     0.1928   160.0201 </r>
       <r>   -12.9774     2.9196   160.3241 </r>
       <r>   -12.8733     9.5041   161.3139 </r>
       <r>   -12.7691     8.6020   162.2097 </r>
       <r>   -12.6650     3.0242   162.5247 </r>
       <r>   -12.5609    15.3004   164.1181 </r>
       <r>   -12.4567    10.7959   165.2424 </r>
       <r>   -12.3526     1.4285   165.3912 </r>
       <r>   -12.2484     9.9158   166.4238 </r>
       <r>   -12.1443    18.8673   168.3887 </r>
       <r>   -12.0401     8.5787   169.2821 </r>
       <r>   -11.9360    14.3855   170.7802 </r>
       <r>   -11.8319     4.5514   171.2542 </r>
       <r>   -11.7277    12.1672   172.5213 </r>
       <r>   -11.6236    28.6370   175.5036 </r>
       <r>   -11.5194    17.7054   177.3475 </r>
       <r>   -11.4153    19.8499   179.4147 </r>
       <r>   -11.3112    15.9312   181.0738 </r>
       <r>   -11.2070    43.2595   185.5789 </r>
       <r>   -11.1029     2.8449   185.8752 </r>
       <r>   -10.9987    11.5576   187.0788 </r>
       <r>   -10.8946    24.0910   189.5877 </r>
       <r>   -10.7904     6.8283   190.2988 </r>
       <r>   -10.6863    13.9407   191.7506 </r>
       <r>   -10.5822     2.3803   191.9985 </r>
       <r>   -10.4780     0.0141   192.0000 </r>
       <r>   -10.3739     0.0000   192.0000 </r>
       <r>   -10.2697     0.0000   192.0000 </r>
       <r>   -10.1656     0.0000   192.0000 </r>
       <r>   -10.0615     0.0000   192.0000 </r>
       <r>    -9.9573     0.0000   192.0000 </r>
       <r>    -9.8532     0.0000   192.0000 </r>
       <r>    -9.7490     0.0000   192.0000 </r>
       <r>    -9.6449     0.0000   192.0000 </r>
       <r>    -9.5407     0.0000   192.0000 </r>
       <r>    -9.4366     0.0000   192.0000 </r>
       <r>    -9.3325     0.0000   192.0000 </r>
       <r>    -9.2283     0.0000   192.0000 </r>
       <r>    -9.1242     0.0000   192.0000 </r>
       <r>    -9.0200     0.0000   192.0000 </r>
       <r>    -8.9159     0.0000   192.0000 </r>
       <r>    -8.8117     0.0000   192.0000 </r>
       <r>    -8.7076     0.0000   192.0000 </r>
       <r>    -8.6035     0.0000   192.0000 </r>
       <r>    -8.4993     0.0000   192.0000 </r>
       <r>    -8.3952     0.0000   192.0000 </r>
       <r>    -8.2910     0.0000   192.0000 </r>
       <r>    -8.1869     0.0000   192.0000 </r>
       <r>    -8.0828     0.0000   192.0000 </r>
       <r>    -7.9786     0.0000   192.0000 </r>
       <r>    -7.8745     0.0000   192.0000 </r>
       <r>    -7.7703     0.0000   192.0000 </r>
       <r>    -7.6662     0.0000   192.0000 </r>
       <r>    -7.5620     0.0000   192.0000 </r>
       <r>    -7.4579     0.0000   192.0000 </r>
       <r>    -7.3538     0.0000   192.0000 </r>
       <r>    -7.2496     0.0000   192.0000 </r>
       <r>    -7.1455     0.0000   192.0000 </r>
       <r>    -7.0413     0.0000   192.0000 </r>
       <r>    -6.9372     0.0000   192.0000 </r>
       <r>    -6.8331     0.0000   192.0000 </r>
       <r>    -6.7289     0.0000   192.0000 </r>
       <r>    -6.6248     0.0000   192.0000 </r>
       <r>    -6.5206     0.0000   192.0000 </r>
       <r>    -6.4165     0.0633   192.0066 </r>
       <r>    -6.3123     0.6569   192.0750 </r>
       <r>    -6.2082     2.6848   192.3546 </r>
       <r>    -6.1041     4.6094   192.8346 </r>
       <r>    -5.9999     3.4342   193.1923 </r>
       <r>    -5.8958     5.3337   193.7478 </r>
       <r>    -5.7916    11.2672   194.9211 </r>
       <r>    -5.6875     7.2805   195.6793 </r>
       <r>    -5.5834     7.0936   196.4181 </r>
       <r>    -5.4792     9.3333   197.3901 </r>
       <r>    -5.3751    10.7848   198.5132 </r>
       <r>    -5.2709    11.4405   199.7046 </r>
       <r>    -5.1668    11.2541   200.8767 </r>
       <r>    -5.0626    15.8158   202.5238 </r>
       <r>    -4.9585    10.6744   203.6354 </r>
       <r>    -4.8544    17.9807   205.5079 </r>
       <r>    -4.7502    10.0317   206.5527 </r>
       <r>    -4.6461     7.0265   207.2844 </r>
       <r>    -4.5419    12.7205   208.6092 </r>
       <r>    -4.4378    13.8484   210.0513 </r>
       <r>    -4.3337    21.2631   212.2657 </r>
       <r>    -4.2295    31.2778   215.5231 </r>
       <r>    -4.1254    42.0611   219.9034 </r>
       <r>    -4.0212    28.2770   222.8482 </r>
       <r>    -3.9171    19.0854   224.8358 </r>
       <r>    -3.8129     9.3061   225.8049 </r>
       <r>    -3.7088    13.7273   227.2345 </r>
       <r>    -3.6047    17.6647   229.0741 </r>
       <r>    -3.5005    15.2788   230.6653 </r>
       <r>    -3.3964     9.7300   231.6786 </r>
       <r>    -3.2922     5.7566   232.2781 </r>
       <r>    -3.1881     7.5477   233.0641 </r>
       <r>    -3.0840    10.4357   234.1509 </r>
       <r>    -2.9798     5.5915   234.7332 </r>
       <r>    -2.8757     0.1611   234.7500 </r>
       <r>    -2.7715     0.4823   234.8002 </r>
       <r>    -2.6674    15.3236   236.3961 </r>
       <r>    -2.5632     8.4135   237.2722 </r>
       <r>    -2.4591     4.6000   237.7513 </r>
       <r>    -2.3550     1.3622   237.8932 </r>
       <r>    -2.2508     4.1766   238.3281 </r>
       <r>    -2.1467     3.0471   238.6455 </r>
       <r>    -2.0425     5.6968   239.2387 </r>
       <r>    -1.9384     1.7012   239.4159 </r>
       <r>    -1.8343     3.3407   239.7638 </r>
       <r>    -1.7301     1.0701   239.8752 </r>
       <r>    -1.6260     0.6027   239.9380 </r>
       <r>    -1.5218     0.4486   239.9847 </r>
       <r>    -1.4177     0.1464   240.0000 </r>
       <r>    -1.3135     0.0002   240.0000 </r>
       <r>    -1.2094     0.0000   240.0000 </r>
       <r>    -1.1053     0.0000   240.0000 </r>
       <r>    -1.0011     0.0000   240.0000 </r>
       <r>    -0.8970     0.0000   240.0000 </r>
       <r>    -0.7928     0.0000   240.0000 </r>
       <r>    -0.6887     0.0000   240.0000 </r>
       <r>    -0.5845     0.0000   240.0000 </r>
       <r>    -0.4804     0.0000   240.0000 </r>
       <r>    -0.3763     0.0000   240.0000 </r>
       <r>    -0.2721     0.0000   240.0000 </r>
       <r>    -0.1680     0.0000   240.0000 </r>
       <r>    -0.0638     0.0000   240.0000 </r>
       <r>     0.0403     0.0000   240.0000 </r>
       <r>     0.1444     0.0000   240.0000 </r>
       <r>     0.2486     0.0000   240.0000 </r>
       <r>     0.3527     0.0038   240.0004 </r>
       <r>     0.4569     0.9126   240.0954 </r>
       <r>     0.5610     3.9279   240.5045 </r>
       <r>     0.6652    17.3007   242.3062 </r>
       <r>     0.7693    30.3401   245.4659 </r>
       <r>     0.8734    29.1978   248.5066 </r>
       <r>     0.9776    31.6274   251.8004 </r>
       <r>     1.0817    24.9405   254.3977 </r>
       <r>     1.1859    15.3473   255.9960 </r>
       <r>     1.2900    19.6783   258.0453 </r>
       <r>     1.3941    34.1512   261.6019 </r>
       <r>     1.4983    16.2108   263.2901 </r>
       <r>     1.6024    10.7384   264.4084 </r>
       <r>     1.7066    13.9098   265.8570 </r>
       <r>     1.8107    36.6707   269.6760 </r>
       <r>     1.9149    10.6465   270.7847 </r>
       <r>     2.0190    19.3547   272.8003 </r>
       <r>     2.1231    20.0725   274.8907 </r>
       <r>     2.2273    24.4263   277.4345 </r>
       <r>     2.3314    40.3438   281.6360 </r>
       <r>     2.4356    27.8987   284.5414 </r>
       <r>     2.5397    28.2939   287.4880 </r>
       <r>     2.6438    17.0441   289.2630 </r>
       <r>     2.7480    23.8120   291.7428 </r>
       <r>     2.8521    27.9204   294.6505 </r>
       <r>     2.9563    37.3481   298.5400 </r>
       <r>     3.0604    35.9040   302.2791 </r>
       <r>     3.1646    14.2376   303.7618 </r>
       <r>     3.2687    25.2984   306.3965 </r>
       <r>     3.3728    19.4275   308.4197 </r>
       <r>     3.4770    19.2222   310.4215 </r>
       <r>     3.5811    17.1247   312.2049 </r>
       <r>     3.6853    24.2951   314.7350 </r>
       <r>     3.7894    44.0559   319.3231 </r>
       <r>     3.8935    37.4201   323.2201 </r>
       <r>     3.9977    15.0626   324.7887 </r>
       <r>     4.1018    29.7381   327.8857 </r>
       <r>     4.2060    35.7778   331.6117 </r>
       <r>     4.3101    20.9830   333.7969 </r>
       <r>     4.4143    18.3976   335.7128 </r>
       <r>     4.5184    35.2613   339.3850 </r>
       <r>     4.6225    20.9826   341.5702 </r>
       <r>     4.7267    15.2894   343.1624 </r>
       <r>     4.8308    15.9332   344.8218 </r>
       <r>     4.9350    18.0193   346.6983 </r>
       <r>     5.0391     6.9672   347.4239 </r>
       <r>     5.1432    30.1843   350.5673 </r>
       <r>     5.2474    47.8247   355.5479 </r>
       <r>     5.3515    46.1765   360.3568 </r>
       <r>     5.4557    56.0224   366.1911 </r>
       <r>     5.5598    28.9204   369.2029 </r>
       <r>     5.6640    26.7272   371.9863 </r>
       <r>     5.7681    24.1567   374.5020 </r>
       <r>     5.8722    20.6083   376.6482 </r>
       <r>     5.9764    27.0696   379.4673 </r>
       <r>     6.0805    25.6355   382.1370 </r>
       <r>     6.1847     9.6901   383.1462 </r>
       <r>     6.2888     5.8478   383.7552 </r>
       <r>     6.3929     2.2750   383.9921 </r>
       <r>     6.4971     0.0760   384.0000 </r>
       <r>     6.6012     0.0000   384.0000 </r>
       <r>     6.7054     0.0853   384.0089 </r>
       <r>     6.8095     0.3085   384.0410 </r>
       <r>     6.9137     0.0773   384.0491 </r>
       <r>     7.0178     0.6851   384.1204 </r>
       <r>     7.1219     0.0748   384.1282 </r>
       <r>     7.2261     0.6893   384.2000 </r>
       <r>     7.3302     0.7656   384.2797 </r>
       <r>     7.4344     0.5003   384.3318 </r>
       <r>     7.5385     1.0547   384.4416 </r>
       <r>     7.6427     2.8093   384.7342 </r>
       <r>     7.7468     4.3113   385.1832 </r>
       <r>     7.8509     4.3871   385.6401 </r>
       <r>     7.9551     4.9631   386.1569 </r>
       <r>     8.0592     8.9652   387.0906 </r>
       <r>     8.1634     7.1133   387.8314 </r>
       <r>     8.2675    12.0240   389.0836 </r>
       <r>     8.3716     6.8549   389.7975 </r>
       <r>     8.4758     8.2470   390.6563 </r>
       <r>     8.5799    10.1059   391.7088 </r>
       <r>     8.6841     8.3604   392.5794 </r>
       <r>     8.7882    33.3744   396.0551 </r>
       <r>     8.8924    22.0059   398.3468 </r>
       <r>     8.9965    26.2667   401.0823 </r>
       <r>     9.1006    14.8700   402.6309 </r>
       <r>     9.2048    30.6935   405.8274 </r>
       <r>     9.3089    20.8689   408.0007 </r>
       <r>     9.4131    20.5811   410.1440 </r>
       <r>     9.5172    19.7845   412.2044 </r>
       <r>     9.6213    27.4029   415.0582 </r>
       <r>     9.7255    29.2631   418.1057 </r>
       <r>     9.8296    24.1447   420.6202 </r>
       <r>     9.9338    21.3522   422.8439 </r>
       <r>    10.0379    28.1108   425.7714 </r>
       <r>    10.1421    31.2018   429.0208 </r>
       <r>    10.2462    26.0804   431.7368 </r>
       <r>    10.3503    25.6725   434.4104 </r>
       <r>    10.4545    20.2159   436.5157 </r>
       <r>    10.5586    21.1795   438.7214 </r>
       <r>    10.6628    13.8247   440.1611 </r>
       <r>    10.7669    21.1095   442.3595 </r>
       <r>    10.8710    16.9490   444.1246 </r>
       <r>    10.9752    21.8997   446.4053 </r>
       <r>    11.0793    32.4038   449.7799 </r>
       <r>    11.1835    39.7966   453.9243 </r>
       <r>    11.2876    31.1857   457.1721 </r>
       <r>    11.3918    38.4980   461.1813 </r>
       <r>    11.4959    19.9475   463.2587 </r>
       <r>    11.6000     4.7208   463.7503 </r>
       <r>    11.7042     2.3657   463.9967 </r>
       <r>    11.8083     0.0316   464.0000 </r>
       <r>    11.9125     0.0000   464.0000 </r>
       <r>    12.0166     0.0000   464.0000 </r>
       <r>    12.1207     0.0000   464.0000 </r>
       <r>    12.2249     0.0000   464.0000 </r>
       <r>    12.3290     0.0000   464.0000 </r>
       <r>    12.4332     0.0000   464.0000 </r>
       <r>    12.5373     0.0000   464.0000 </r>
       <r>    12.6415     0.0000   464.0000 </r>
       <r>    12.7456     0.0000   464.0000 </r>
       <r>    12.8497     0.0000   464.0000 </r>
       <r>    12.9539     0.0000   464.0000 </r>
       <r>    13.0580     0.0000   464.0000 </r>
      </set>
     </set>
    </array>
   </total>
  </dos>
 </calculation>
 <structure name="finalpos" >
  <crystal>
   <varray name="basis" >
    <v>       7.84015905       0.00000000       0.00000000 </v>
    <v>       0.00000000       7.84015905       0.00000000 </v>
    <v>       0.00000000       0.00000000      12.37270181 </v>
   </varray>
   <i name="volume">    760.52639654 </i>
   <varray name="rec_basis" >
    <v>       0.12754843       0.00000000      -0.00000000 </v>
    <v>       0.00000000       0.12754843       0.00000000 </v>
    <v>      -0.00000000       0.00000000       0.08082309 </v>
   </varray>
  </crystal>
  <varray name="positions" >
   <v>       0.24891108       0.24891108       0.85428186 </v>
   <v>       0.75108892       0.24891108       0.85428186 </v>
   <v>       0.24891108       0.75108892       0.85428186 </v>
   <v>       0.75108892       0.75108892       0.85428186 </v>
   <v>       0.00000000       0.00000000       0.64671764 </v>
   <v>       0.50000000       0.00000000       0.64751587 </v>
   <v>       0.00000000       0.50000000       0.64751587 </v>
   <v>       0.50000000       0.50000000       0.64841730 </v>
   <v>       0.00000000       0.00000000       0.35328236 </v>
   <v>       0.50000000       0.00000000       0.35248413 </v>
   <v>       0.00000000       0.50000000       0.35248413 </v>
   <v>       0.50000000       0.50000000       0.35158270 </v>
   <v>       0.24891108       0.24891108       0.14571814 </v>
   <v>       0.75108892       0.24891108       0.14571814 </v>
   <v>       0.24891108       0.75108892       0.14571814 </v>
   <v>       0.75108892       0.75108892       0.14571814 </v>
   <v>       0.50000000       0.00000000       0.00000000 </v>
   <v>       0.00000000       0.50000000       0.00000000 </v>
   <v>       0.50000000       0.50000000       0.00000000 </v>
   <v>       0.25013764       0.25013764       0.50000000 </v>
   <v>       0.74986236       0.25013764       0.50000000 </v>
   <v>       0.25013764       0.74986236       0.50000000 </v>
   <v>       0.74986236       0.74986236       0.50000000 </v>
   <v>       0.00000000       0.24953518       0.75047350 </v>
   <v>       0.50000000       0.24967019       0.75139378 </v>
   <v>       0.00000000       0.75046482       0.75047350 </v>
   <v>       0.50000000       0.75032981       0.75139378 </v>
   <v>       0.24953518       0.00000000       0.75047350 </v>
   <v>       0.75046482       0.00000000       0.75047350 </v>
   <v>       0.24967019       0.50000000       0.75139378 </v>
   <v>       0.75032981       0.50000000       0.75139378 </v>
   <v>       0.24953518       0.00000000       0.24952650 </v>
   <v>       0.75046482       0.00000000       0.24952650 </v>
   <v>       0.24967019       0.50000000       0.24860622 </v>
   <v>       0.75032981       0.50000000       0.24860622 </v>
   <v>       0.00000000       0.24953518       0.24952650 </v>
   <v>       0.50000000       0.24967019       0.24860622 </v>
   <v>       0.00000000       0.75046482       0.24952650 </v>
   <v>       0.50000000       0.75032981       0.24860622 </v>
   <v>       0.00000000       0.00000000       0.00000000 </v>
  </varray>
 </structure>
</modeling>
