unknown system                          
           1
     7.839995    0.000000    0.000000
     0.000000    7.839995    0.000000
     0.000000    0.000000   12.372034
   Bi   Se   O    S 
    16     7    16     1
Direct configuration=     1
   0.24891099  0.24891099  0.85428689
   0.75108901  0.24891099  0.85428689
   0.24891099  0.75108901  0.85428689
   0.75108901  0.75108901  0.85428689
   0.00000000  0.00000000  0.64671288
   0.50000000  0.00000000  0.64751054
   0.00000000  0.50000000  0.64751054
   0.50000000  0.50000000  0.64841183
   0.00000000  0.00000000  0.35328712
   0.50000000  0.00000000  0.35248946
   0.00000000  0.50000000  0.35248946
   0.50000000  0.50000000  0.35158817
   0.24891099  0.24891099  0.14571311
   0.75108901  0.24891099  0.14571311
   0.24891099  0.75108901  0.14571311
   0.75108901  0.75108901  0.14571311
   0.50000000  0.00000000  0.00000000
   0.00000000  0.50000000  0.00000000
   0.50000000  0.50000000  0.00000000
   0.25013772  0.25013772  0.50000000
   0.74986228  0.25013772  0.50000000
   0.25013772  0.74986228  0.50000000
   0.74986228  0.74986228  0.50000000
   0.00000000  0.24953536  0.75047321
   0.50000000  0.24967039  0.75139398
   0.00000000  0.75046464  0.75047321
   0.50000000  0.75032961  0.75139398
   0.24953536  0.00000000  0.75047321
   0.75046464  0.00000000  0.75047321
   0.24967039  0.50000000  0.75139398
   0.75032961  0.50000000  0.75139398
   0.24953536  0.00000000  0.24952679
   0.75046464  0.00000000  0.24952679
   0.24967039  0.50000000  0.24860602
   0.75032961  0.50000000  0.24860602
   0.00000000  0.24953536  0.24952679
   0.50000000  0.24967039  0.24860602
   0.00000000  0.75046464  0.24952679
   0.50000000  0.75032961  0.24860602
   0.00000000  0.00000000  0.00000000
unknown system                          
           1
     7.840290    0.000000    0.000000
     0.000000    7.840290    0.000000
     0.000000    0.000000   12.372583
   Bi   Se   O    S 
    16     7    16     1
Direct configuration=     2
   0.24891095  0.24891095  0.85428670
   0.75108905  0.24891095  0.85428670
   0.24891095  0.75108905  0.85428670
   0.75108905  0.75108905  0.85428670
   1.00000000  0.00000000  0.64671300
   0.50000000  0.00000000  0.64751086
   0.00000000  0.50000000  0.64751086
   0.50000000  0.50000000  0.64841214
   0.00000000  0.00000000  0.35328700
   0.50000000  0.00000000  0.35248914
   1.00000000  0.50000000  0.35248914
   0.50000000  0.50000000  0.35158786
   0.24891095  0.24891095  0.14571330
   0.75108905  0.24891095  0.14571330
   0.24891095  0.75108905  0.14571330
   0.75108905  0.75108905  0.14571330
   0.50000000  0.00000000  0.00000000
   0.00000000  0.50000000  0.00000000
   0.50000000  0.50000000  0.00000000
   0.25013774  0.25013774  0.50000000
   0.74986226  0.25013774  0.50000000
   0.25013774  0.74986226  0.50000000
   0.74986226  0.74986226  0.50000000
   0.00000000  0.24953528  0.75047327
   0.50000000  0.24967027  0.75139389
   1.00000000  0.75046472  0.75047327
   0.50000000  0.75032973  0.75139389
   0.24953528  0.00000000  0.75047327
   0.75046472  0.00000000  0.75047327
   0.24967027  0.50000000  0.75139389
   0.75032973  0.50000000  0.75139389
   0.24953528  0.00000000  0.24952673
   0.75046472  0.00000000  0.24952673
   0.24967027  0.50000000  0.24860611
   0.75032973  0.50000000  0.24860611
   0.00000000  0.24953528  0.24952673
   0.50000000  0.24967027  0.24860611
   0.00000000  0.75046472  0.24952673
   0.50000000  0.75032973  0.24860611
   1.00000000  0.00000000  0.00000000
unknown system                          
           1
     7.840258    0.000000    0.000000
     0.000000    7.840258    0.000000
     0.000000    0.000000   12.372523
   Bi   Se   O    S 
    16     7    16     1
Direct configuration=     3
   0.24891095  0.24891095  0.85428672
   0.75108905  0.24891095  0.85428672
   0.24891095  0.75108905  0.85428672
   0.75108905  0.75108905  0.85428672
   0.00000000  0.00000000  0.64671298
   0.50000000  0.00000000  0.64751082
   0.00000000  0.50000000  0.64751082
   0.50000000  0.50000000  0.64841210
   0.00000000  0.00000000  0.35328702
   0.50000000  0.00000000  0.35248918
   0.00000000  0.50000000  0.35248918
   0.50000000  0.50000000  0.35158790
   0.24891095  0.24891095  0.14571328
   0.75108905  0.24891095  0.14571328
   0.24891095  0.75108905  0.14571328
   0.75108905  0.75108905  0.14571328
   0.50000000  0.00000000  0.00000000
   0.00000000  0.50000000  0.00000000
   0.50000000  0.50000000  0.00000000
   0.25013774  0.25013774  0.50000000
   0.74986226  0.25013774  0.50000000
   0.25013774  0.74986226  0.50000000
   0.74986226  0.74986226  0.50000000
   0.00000000  0.24953529  0.75047327
   0.50000000  0.24967028  0.75139390
   0.00000000  0.75046471  0.75047327
   0.50000000  0.75032972  0.75139390
   0.24953529  0.00000000  0.75047327
   0.75046471  0.00000000  0.75047327
   0.24967028  0.50000000  0.75139390
   0.75032972  0.50000000  0.75139390
   0.24953529  0.00000000  0.24952673
   0.75046471  0.00000000  0.24952673
   0.24967028  0.50000000  0.24860610
   0.75032972  0.50000000  0.24860610
   0.00000000  0.24953529  0.24952673
   0.50000000  0.24967028  0.24860610
   0.00000000  0.75046471  0.24952673
   0.50000000  0.75032972  0.24860610
   0.00000000  0.00000000  0.00000000
unknown system                          
           1
     7.840169    0.000000    0.000000
     0.000000    7.840169    0.000000
     0.000000    0.000000   12.372358
   Bi   Se   O    S 
    16     7    16     1
Direct configuration=     4
   0.24891097  0.24891097  0.85428678
   0.75108903  0.24891097  0.85428678
   0.24891097  0.75108903  0.85428678
   0.75108903  0.75108903  0.85428678
   0.00000000  0.00000000  0.64671295
   0.50000000  0.00000000  0.64751073
   0.00000000  0.50000000  0.64751073
   0.50000000  0.50000000  0.64841201
   0.00000000  0.00000000  0.35328705
   0.50000000  0.00000000  0.35248927
   0.00000000  0.50000000  0.35248927
   0.50000000  0.50000000  0.35158799
   0.24891097  0.24891097  0.14571322
   0.75108903  0.24891097  0.14571322
   0.24891097  0.75108903  0.14571322
   0.75108903  0.75108903  0.14571322
   0.50000000  0.00000000  0.00000000
   0.00000000  0.50000000  0.00000000
   0.50000000  0.50000000  0.00000000
   0.25013773  0.25013773  0.50000000
   0.74986227  0.25013773  0.50000000
   0.25013773  0.74986227  0.50000000
   0.74986227  0.74986227  0.50000000
   0.00000000  0.24953531  0.75047325
   0.50000000  0.24967032  0.75139392
   0.00000000  0.75046469  0.75047325
   0.50000000  0.75032968  0.75139392
   0.24953531  0.00000000  0.75047325
   0.75046469  0.00000000  0.75047325
   0.24967032  0.50000000  0.75139392
   0.75032968  0.50000000  0.75139392
   0.24953531  0.00000000  0.24952675
   0.75046469  0.00000000  0.24952675
   0.24967032  0.50000000  0.24860608
   0.75032968  0.50000000  0.24860608
   0.00000000  0.24953531  0.24952675
   0.50000000  0.24967032  0.24860608
   0.00000000  0.75046469  0.24952675
   0.50000000  0.75032968  0.24860608
   0.00000000  0.00000000  0.00000000
unknown system                          
           1
     7.840179    0.000000    0.000000
     0.000000    7.840179    0.000000
     0.000000    0.000000   12.372517
   Bi   Se   O    S 
    16     7    16     1
Direct configuration=     5
   0.24891099  0.24891099  0.85428371
   0.75108901  0.24891099  0.85428371
   0.24891099  0.75108901  0.85428371
   0.75108901  0.75108901  0.85428371
   0.00000000  0.00000000  0.64671590
   0.50000000  0.00000000  0.64751389
   1.00000000  0.50000000  0.64751389
   0.50000000  0.50000000  0.64841523
   1.00000000  0.00000000  0.35328410
   0.50000000  0.00000000  0.35248611
   0.00000000  0.50000000  0.35248611
   0.50000000  0.50000000  0.35158477
   0.24891099  0.24891099  0.14571629
   0.75108901  0.24891099  0.14571629
   0.24891099  0.75108901  0.14571629
   0.75108901  0.75108901  0.14571629
   0.50000000  0.00000000  1.00000000
   1.00000000  0.50000000  1.00000000
   0.50000000  0.50000000  1.00000000
   0.25013773  0.25013773  0.50000000
   0.74986227  0.25013773  0.50000000
   0.25013773  0.74986227  0.50000000
   0.74986227  0.74986227  0.50000000
   1.00000000  0.24953524  0.75047334
   0.50000000  0.24967023  0.75139384
   0.00000000  0.75046476  0.75047334
   0.50000000  0.75032977  0.75139384
   0.24953524  0.00000000  0.75047334
   0.75046476  0.00000000  0.75047334
   0.24967023  0.50000000  0.75139384
   0.75032977  0.50000000  0.75139384
   0.24953524  0.00000000  0.24952666
   0.75046476  0.00000000  0.24952666
   0.24967023  0.50000000  0.24860616
   0.75032977  0.50000000  0.24860616
   1.00000000  0.24953524  0.24952666
   0.50000000  0.24967023  0.24860616
   0.00000000  0.75046476  0.24952666
   0.50000000  0.75032977  0.24860616
   1.00000000  0.00000000  1.00000000
unknown system                          
           1
     7.840180    0.000000    0.000000
     0.000000    7.840180    0.000000
     0.000000    0.000000   12.372526
   Bi   Se   O    S 
    16     7    16     1
Direct configuration=     6
   0.24891099  0.24891099  0.85428353
   0.75108901  0.24891099  0.85428353
   0.24891099  0.75108901  0.85428353
   0.75108901  0.75108901  0.85428353
   1.00000000  0.00000000  0.64671607
   0.50000000  0.00000000  0.64751407
   0.00000000  0.50000000  0.64751407
   0.50000000  0.50000000  0.64841542
   0.00000000  0.00000000  0.35328393
   0.50000000  0.00000000  0.35248593
   0.00000000  0.50000000  0.35248593
   0.50000000  0.50000000  0.35158458
   0.24891099  0.24891099  0.14571647
   0.75108901  0.24891099  0.14571647
   0.24891099  0.75108901  0.14571647
   0.75108901  0.75108901  0.14571647
   0.50000000  0.00000000  0.00000000
   0.00000000  0.50000000  0.00000000
   0.50000000  0.50000000  0.00000000
   0.25013773  0.25013773  0.50000000
   0.74986227  0.25013773  0.50000000
   0.25013773  0.74986227  0.50000000
   0.74986227  0.74986227  0.50000000
   0.00000000  0.24953524  0.75047334
   0.50000000  0.24967022  0.75139383
   1.00000000  0.75046476  0.75047334
   0.50000000  0.75032978  0.75139383
   0.24953524  0.00000000  0.75047334
   0.75046476  0.00000000  0.75047334
   0.24967022  0.50000000  0.75139383
   0.75032978  0.50000000  0.75139383
   0.24953524  0.00000000  0.24952666
   0.75046476  0.00000000  0.24952666
   0.24967022  0.50000000  0.24860617
   0.75032978  0.50000000  0.24860617
   0.00000000  0.24953524  0.24952666
   0.50000000  0.24967022  0.24860617
   0.00000000  0.75046476  0.24952666
   0.50000000  0.75032978  0.24860617
   0.00000000  0.00000000  0.00000000
unknown system                          
           1
     7.840181    0.000000    0.000000
     0.000000    7.840181    0.000000
     0.000000    0.000000   12.372544
   Bi   Se   O    S 
    16     7    16     1
Direct configuration=     7
   0.24891099  0.24891099  0.85428318
   0.75108901  0.24891099  0.85428318
   0.24891099  0.75108901  0.85428318
   0.75108901  0.75108901  0.85428318
   0.00000000  0.00000000  0.64671641
   0.50000000  0.00000000  0.64751444
   1.00000000  0.50000000  0.64751444
   0.50000000  0.50000000  0.64841579
   0.00000000  0.00000000  0.35328359
   0.50000000  0.00000000  0.35248556
   0.00000000  0.50000000  0.35248556
   0.50000000  0.50000000  0.35158421
   0.24891099  0.24891099  0.14571682
   0.75108901  0.24891099  0.14571682
   0.24891099  0.75108901  0.14571682
   0.75108901  0.75108901  0.14571682
   0.50000000  0.00000000  1.00000000
   1.00000000  0.50000000  1.00000000
   0.50000000  0.50000000  1.00000000
   0.25013773  0.25013773  0.50000000
   0.74986227  0.25013773  0.50000000
   0.25013773  0.74986227  0.50000000
   0.74986227  0.74986227  0.50000000
   1.00000000  0.24953523  0.75047336
   0.50000000  0.24967021  0.75139382
   0.00000000  0.75046477  0.75047336
   0.50000000  0.75032979  0.75139382
   0.24953523  0.00000000  0.75047336
   0.75046477  0.00000000  0.75047336
   0.24967021  0.50000000  0.75139382
   0.75032979  0.50000000  0.75139382
   0.24953523  0.00000000  0.24952664
   0.75046477  0.00000000  0.24952664
   0.24967021  0.50000000  0.24860618
   0.75032979  0.50000000  0.24860618
   0.00000000  0.24953523  0.24952664
   0.50000000  0.24967021  0.24860618
   0.00000000  0.75046477  0.24952664
   0.50000000  0.75032979  0.24860618
   1.00000000  0.00000000  1.00000000
unknown system                          
           1
     7.840183    0.000000    0.000000
     0.000000    7.840183    0.000000
     0.000000    0.000000   12.372581
   Bi   Se   O    S 
    16     7    16     1
Direct configuration=     8
   0.24891099  0.24891099  0.85428247
   0.75108901  0.24891099  0.85428247
   0.24891099  0.75108901  0.85428247
   0.75108901  0.75108901  0.85428247
   1.00000000  0.00000000  0.64671708
   0.50000000  0.00000000  0.64751516
   0.00000000  0.50000000  0.64751516
   0.50000000  0.50000000  0.64841652
   0.00000000  0.00000000  0.35328292
   0.50000000  0.00000000  0.35248484
   0.00000000  0.50000000  0.35248484
   0.50000000  0.50000000  0.35158348
   0.24891099  0.24891099  0.14571753
   0.75108901  0.24891099  0.14571753
   0.24891099  0.75108901  0.14571753
   0.75108901  0.75108901  0.14571753
   0.50000000  0.00000000  0.00000000
   0.00000000  0.50000000  0.00000000
   0.50000000  0.50000000  0.00000000
   0.25013773  0.25013773  0.50000000
   0.74986227  0.25013773  0.50000000
   0.25013773  0.74986227  0.50000000
   0.74986227  0.74986227  0.50000000
   0.00000000  0.24953521  0.75047338
   0.50000000  0.24967019  0.75139380
   1.00000000  0.75046479  0.75047338
   0.50000000  0.75032981  0.75139380
   0.24953521  0.00000000  0.75047338
   0.75046479  0.00000000  0.75047338
   0.24967019  0.50000000  0.75139380
   0.75032981  0.50000000  0.75139380
   0.24953521  0.00000000  0.24952662
   0.75046479  0.00000000  0.24952662
   0.24967019  0.50000000  0.24860620
   0.75032981  0.50000000  0.24860620
   0.00000000  0.24953521  0.24952662
   0.50000000  0.24967019  0.24860620
   0.00000000  0.75046479  0.24952662
   0.50000000  0.75032981  0.24860620
   0.00000000  0.00000000  0.00000000
unknown system                          
           1
     7.840188    0.000000    0.000000
     0.000000    7.840188    0.000000
     0.000000    0.000000   12.372654
   Bi   Se   O    S 
    16     7    16     1
Direct configuration=     9
   0.24891100  0.24891100  0.85428106
   0.75108900  0.24891100  0.85428106
   0.24891100  0.75108900  0.85428106
   0.75108900  0.75108900  0.85428106
   0.00000000  0.00000000  0.64671844
   0.50000000  0.00000000  0.64751661
   1.00000000  0.50000000  0.64751661
   0.50000000  0.50000000  0.64841800
   0.00000000  0.00000000  0.35328156
   0.50000000  0.00000000  0.35248339
   0.00000000  0.50000000  0.35248339
   0.50000000  0.50000000  0.35158200
   0.24891100  0.24891100  0.14571894
   0.75108900  0.24891100  0.14571894
   0.24891100  0.75108900  0.14571894
   0.75108900  0.75108900  0.14571894
   0.50000000  0.00000000  1.00000000
   1.00000000  0.50000000  1.00000000
   0.50000000  0.50000000  1.00000000
   0.25013773  0.25013773  0.50000000
   0.74986227  0.25013773  0.50000000
   0.25013773  0.74986227  0.50000000
   0.74986227  0.74986227  0.50000000
   1.00000000  0.24953518  0.75047342
   0.50000000  0.24967015  0.75139376
   0.00000000  0.75046482  0.75047342
   0.50000000  0.75032985  0.75139376
   0.24953518  0.00000000  0.75047342
   0.75046482  0.00000000  0.75047342
   0.24967015  0.50000000  0.75139376
   0.75032985  0.50000000  0.75139376
   0.24953518  0.00000000  0.24952658
   0.75046482  0.00000000  0.24952658
   0.24967015  0.50000000  0.24860624
   0.75032985  0.50000000  0.24860624
   0.00000000  0.24953518  0.24952658
   0.50000000  0.24967015  0.24860624
   0.00000000  0.75046482  0.24952658
   0.50000000  0.75032985  0.24860624
   1.00000000  0.00000000  1.00000000
unknown system                          
           1
     7.840186    0.000000    0.000000
     0.000000    7.840186    0.000000
     0.000000    0.000000   12.372621
   Bi   Se   O    S 
    16     7    16     1
Direct configuration=    10
   0.24891100  0.24891100  0.85428169
   0.75108900  0.24891100  0.85428169
   0.24891100  0.75108900  0.85428169
   0.75108900  0.75108900  0.85428169
   0.00000000  0.00000000  0.64671784
   0.50000000  0.00000000  0.64751597
   0.00000000  0.50000000  0.64751597
   0.50000000  0.50000000  0.64841734
   0.00000000  0.00000000  0.35328216
   0.50000000  0.00000000  0.35248403
   0.00000000  0.50000000  0.35248403
   0.50000000  0.50000000  0.35158266
   0.24891100  0.24891100  0.14571831
   0.75108900  0.24891100  0.14571831
   0.24891100  0.75108900  0.14571831
   0.75108900  0.75108900  0.14571831
   0.50000000  0.00000000  0.00000000
   0.00000000  0.50000000  0.00000000
   0.50000000  0.50000000  0.00000000
   0.25013773  0.25013773  0.50000000
   0.74986227  0.25013773  0.50000000
   0.25013773  0.74986227  0.50000000
   0.74986227  0.74986227  0.50000000
   0.00000000  0.24953519  0.75047340
   0.50000000  0.24967016  0.75139378
   0.00000000  0.75046481  0.75047340
   0.50000000  0.75032984  0.75139378
   0.24953519  0.00000000  0.75047340
   0.75046481  0.00000000  0.75047340
   0.24967016  0.50000000  0.75139378
   0.75032984  0.50000000  0.75139378
   0.24953519  0.00000000  0.24952660
   0.75046481  0.00000000  0.24952660
   0.24967016  0.50000000  0.24860622
   0.75032984  0.50000000  0.24860622
   0.00000000  0.24953519  0.24952660
   0.50000000  0.24967016  0.24860622
   0.00000000  0.75046481  0.24952660
   0.50000000  0.75032984  0.24860622
   0.00000000  0.00000000  0.00000000
unknown system                          
           1
     7.840186    0.000000    0.000000
     0.000000    7.840186    0.000000
     0.000000    0.000000   12.372626
   Bi   Se   O    S 
    16     7    16     1
Direct configuration=    11
   0.24891100  0.24891100  0.85428160
   0.75108900  0.24891100  0.85428160
   0.24891100  0.75108900  0.85428160
   0.75108900  0.75108900  0.85428160
   0.00000000  0.00000000  0.64671792
   0.50000000  0.00000000  0.64751606
   1.00000000  0.50000000  0.64751606
   0.50000000  0.50000000  0.64841743
   0.00000000  0.00000000  0.35328208
   0.50000000  0.00000000  0.35248394
   0.00000000  0.50000000  0.35248394
   0.50000000  0.50000000  0.35158257
   0.24891100  0.24891100  0.14571840
   0.75108900  0.24891100  0.14571840
   0.24891100  0.75108900  0.14571840
   0.75108900  0.75108900  0.14571840
   0.50000000  0.00000000  1.00000000
   1.00000000  0.50000000  1.00000000
   0.50000000  0.50000000  1.00000000
   0.25013773  0.25013773  0.50000000
   0.74986227  0.25013773  0.50000000
   0.25013773  0.74986227  0.50000000
   0.74986227  0.74986227  0.50000000
   1.00000000  0.24953519  0.75047340
   0.50000000  0.24967016  0.75139378
   0.00000000  0.75046481  0.75047340
   0.50000000  0.75032984  0.75139378
   0.24953519  0.00000000  0.75047340
   0.75046481  0.00000000  0.75047340
   0.24967016  0.50000000  0.75139378
   0.75032984  0.50000000  0.75139378
   0.24953519  0.00000000  0.24952660
   0.75046481  0.00000000  0.24952660
   0.24967016  0.50000000  0.24860622
   0.75032984  0.50000000  0.24860622
   0.00000000  0.24953519  0.24952660
   0.50000000  0.24967016  0.24860622
   0.00000000  0.75046481  0.24952660
   0.50000000  0.75032984  0.24860622
   1.00000000  0.00000000  1.00000000
unknown system                          
           1
     7.840186    0.000000    0.000000
     0.000000    7.840186    0.000000
     0.000000    0.000000   12.372624
   Bi   Se   O    S 
    16     7    16     1
Direct configuration=    12
   0.24891100  0.24891100  0.85428164
   0.75108900  0.24891100  0.85428164
   0.24891100  0.75108900  0.85428164
   0.75108900  0.75108900  0.85428164
   0.00000000  0.00000000  0.64671788
   0.50000000  0.00000000  0.64751602
   0.00000000  0.50000000  0.64751602
   0.50000000  0.50000000  0.64841739
   0.00000000  0.00000000  0.35328212
   0.50000000  0.00000000  0.35248398
   0.00000000  0.50000000  0.35248398
   0.50000000  0.50000000  0.35158261
   0.24891100  0.24891100  0.14571836
   0.75108900  0.24891100  0.14571836
   0.24891100  0.75108900  0.14571836
   0.75108900  0.75108900  0.14571836
   0.50000000  0.00000000  0.00000000
   0.00000000  0.50000000  0.00000000
   0.50000000  0.50000000  0.00000000
   0.25013773  0.25013773  0.50000000
   0.74986227  0.25013773  0.50000000
   0.25013773  0.74986227  0.50000000
   0.74986227  0.74986227  0.50000000
   0.00000000  0.24953519  0.75047340
   0.50000000  0.24967016  0.75139378
   0.00000000  0.75046481  0.75047340
   0.50000000  0.75032984  0.75139378
   0.24953519  0.00000000  0.75047340
   0.75046481  0.00000000  0.75047340
   0.24967016  0.50000000  0.75139378
   0.75032984  0.50000000  0.75139378
   0.24953519  0.00000000  0.24952660
   0.75046481  0.00000000  0.24952660
   0.24967016  0.50000000  0.24860622
   0.75032984  0.50000000  0.24860622
   0.00000000  0.24953519  0.24952660
   0.50000000  0.24967016  0.24860622
   0.00000000  0.75046481  0.24952660
   0.50000000  0.75032984  0.24860622
   0.00000000  0.00000000  0.00000000
unknown system                          
           1
     7.840186    0.000000    0.000000
     0.000000    7.840186    0.000000
     0.000000    0.000000   12.372624
   Bi   Se   O    S 
    16     7    16     1
Direct configuration=    13
   0.24891100  0.24891100  0.85428163
   0.75108900  0.24891100  0.85428163
   0.24891100  0.75108900  0.85428163
   0.75108900  0.75108900  0.85428163
   0.00000000  0.00000000  0.64671790
   0.50000000  0.00000000  0.64751603
   1.00000000  0.50000000  0.64751603
   0.50000000  0.50000000  0.64841741
   0.00000000  0.00000000  0.35328210
   0.50000000  0.00000000  0.35248397
   0.00000000  0.50000000  0.35248397
   0.50000000  0.50000000  0.35158259
   0.24891100  0.24891100  0.14571837
   0.75108900  0.24891100  0.14571837
   0.24891100  0.75108900  0.14571837
   0.75108900  0.75108900  0.14571837
   0.50000000  0.00000000  1.00000000
   1.00000000  0.50000000  1.00000000
   0.50000000  0.50000000  1.00000000
   0.25013773  0.25013773  0.50000000
   0.74986227  0.25013773  0.50000000
   0.25013773  0.74986227  0.50000000
   0.74986227  0.74986227  0.50000000
   1.00000000  0.24953519  0.75047340
   0.50000000  0.24967016  0.75139378
   0.00000000  0.75046481  0.75047340
   0.50000000  0.75032984  0.75139378
   0.24953519  0.00000000  0.75047340
   0.75046481  0.00000000  0.75047340
   0.24967016  0.50000000  0.75139378
   0.75032984  0.50000000  0.75139378
   0.24953519  0.00000000  0.24952660
   0.75046481  0.00000000  0.24952660
   0.24967016  0.50000000  0.24860622
   0.75032984  0.50000000  0.24860622
   0.00000000  0.24953519  0.24952660
   0.50000000  0.24967016  0.24860622
   0.00000000  0.75046481  0.24952660
   0.50000000  0.75032984  0.24860622
   1.00000000  0.00000000  1.00000000
unknown system                          
           1
     7.840186    0.000000    0.000000
     0.000000    7.840186    0.000000
     0.000000    0.000000   12.372624
   Bi   Se   O    S 
    16     7    16     1
Direct configuration=    14
   0.24891100  0.24891100  0.85428164
   0.75108900  0.24891100  0.85428164
   0.24891100  0.75108900  0.85428164
   0.75108900  0.75108900  0.85428164
   0.00000000  0.00000000  0.64671789
   0.50000000  0.00000000  0.64751602
   0.00000000  0.50000000  0.64751602
   0.50000000  0.50000000  0.64841740
   0.00000000  0.00000000  0.35328211
   0.50000000  0.00000000  0.35248398
   0.00000000  0.50000000  0.35248398
   0.50000000  0.50000000  0.35158260
   0.24891100  0.24891100  0.14571836
   0.75108900  0.24891100  0.14571836
   0.24891100  0.75108900  0.14571836
   0.75108900  0.75108900  0.14571836
   0.50000000  0.00000000  0.00000000
   0.00000000  0.50000000  0.00000000
   0.50000000  0.50000000  0.00000000
   0.25013773  0.25013773  0.50000000
   0.74986227  0.25013773  0.50000000
   0.25013773  0.74986227  0.50000000
   0.74986227  0.74986227  0.50000000
   0.00000000  0.24953519  0.75047340
   0.50000000  0.24967016  0.75139378
   0.00000000  0.75046481  0.75047340
   0.50000000  0.75032984  0.75139378
   0.24953519  0.00000000  0.75047340
   0.75046481  0.00000000  0.75047340
   0.24967016  0.50000000  0.75139378
   0.75032984  0.50000000  0.75139378
   0.24953519  0.00000000  0.24952660
   0.75046481  0.00000000  0.24952660
   0.24967016  0.50000000  0.24860622
   0.75032984  0.50000000  0.24860622
   0.00000000  0.24953519  0.24952660
   0.50000000  0.24967016  0.24860622
   0.00000000  0.75046481  0.24952660
   0.50000000  0.75032984  0.24860622
   0.00000000  0.00000000  0.00000000
unknown system                          
           1
     7.840186    0.000000    0.000000
     0.000000    7.840186    0.000000
     0.000000    0.000000   12.372624
   Bi   Se   O    S 
    16     7    16     1
Direct configuration=    15
   0.24891100  0.24891100  0.85428163
   0.75108900  0.24891100  0.85428163
   0.24891100  0.75108900  0.85428163
   0.75108900  0.75108900  0.85428163
   0.00000000  0.00000000  0.64671789
   0.50000000  0.00000000  0.64751603
   1.00000000  0.50000000  0.64751603
   0.50000000  0.50000000  0.64841741
   0.00000000  0.00000000  0.35328211
   0.50000000  0.00000000  0.35248397
   0.00000000  0.50000000  0.35248397
   0.50000000  0.50000000  0.35158259
   0.24891100  0.24891100  0.14571837
   0.75108900  0.24891100  0.14571837
   0.24891100  0.75108900  0.14571837
   0.75108900  0.75108900  0.14571837
   0.50000000  0.00000000  1.00000000
   1.00000000  0.50000000  1.00000000
   0.50000000  0.50000000  1.00000000
   0.25013773  0.25013773  0.50000000
   0.74986227  0.25013773  0.50000000
   0.25013773  0.74986227  0.50000000
   0.74986227  0.74986227  0.50000000
   1.00000000  0.24953519  0.75047340
   0.50000000  0.24967016  0.75139378
   0.00000000  0.75046481  0.75047340
   0.50000000  0.75032984  0.75139378
   0.24953519  0.00000000  0.75047340
   0.75046481  0.00000000  0.75047340
   0.24967016  0.50000000  0.75139378
   0.75032984  0.50000000  0.75139378
   0.24953519  0.00000000  0.24952660
   0.75046481  0.00000000  0.24952660
   0.24967016  0.50000000  0.24860622
   0.75032984  0.50000000  0.24860622
   0.00000000  0.24953519  0.24952660
   0.50000000  0.24967016  0.24860622
   0.00000000  0.75046481  0.24952660
   0.50000000  0.75032984  0.24860622
   1.00000000  0.00000000  1.00000000
unknown system                          
           1
     7.840186    0.000000    0.000000
     0.000000    7.840186    0.000000
     0.000000    0.000000   12.372624
   Bi   Se   O    S 
    16     7    16     1
Direct configuration=    16
   0.24891100  0.24891100  0.85428163
   0.75108900  0.24891100  0.85428163
   0.24891100  0.75108900  0.85428163
   0.75108900  0.75108900  0.85428163
   0.00000000  0.00000000  0.64671789
   0.50000000  0.00000000  0.64751603
   0.00000000  0.50000000  0.64751603
   0.50000000  0.50000000  0.64841740
   0.00000000  0.00000000  0.35328211
   0.50000000  0.00000000  0.35248397
   0.00000000  0.50000000  0.35248397
   0.50000000  0.50000000  0.35158260
   0.24891100  0.24891100  0.14571837
   0.75108900  0.24891100  0.14571837
   0.24891100  0.75108900  0.14571837
   0.75108900  0.75108900  0.14571837
   0.50000000  0.00000000  0.00000000
   0.00000000  0.50000000  0.00000000
   0.50000000  0.50000000  0.00000000
   0.25013773  0.25013773  0.50000000
   0.74986227  0.25013773  0.50000000
   0.25013773  0.74986227  0.50000000
   0.74986227  0.74986227  0.50000000
   0.00000000  0.24953519  0.75047340
   0.50000000  0.24967016  0.75139378
   0.00000000  0.75046481  0.75047340
   0.50000000  0.75032984  0.75139378
   0.24953519  0.00000000  0.75047340
   0.75046481  0.00000000  0.75047340
   0.24967016  0.50000000  0.75139378
   0.75032984  0.50000000  0.75139378
   0.24953519  0.00000000  0.24952660
   0.75046481  0.00000000  0.24952660
   0.24967016  0.50000000  0.24860622
   0.75032984  0.50000000  0.24860622
   0.00000000  0.24953519  0.24952660
   0.50000000  0.24967016  0.24860622
   0.00000000  0.75046481  0.24952660
   0.50000000  0.75032984  0.24860622
   0.00000000  0.00000000  0.00000000
unknown system                          
           1
     7.840166    0.000000    0.000000
     0.000000    7.840166    0.000000
     0.000000    0.000000   12.372673
   Bi   Se   O    S 
    16     7    16     1
Direct configuration=    17
   0.24891107  0.24891107  0.85428176
   0.75108893  0.24891107  0.85428176
   0.24891107  0.75108893  0.85428176
   0.75108893  0.75108893  0.85428176
   0.00000000  1.00000000  0.64671772
   0.50000000  1.00000000  0.64751593
   0.00000000  0.50000000  0.64751593
   0.50000000  0.50000000  0.64841735
   0.00000000  1.00000000  0.35328228
   0.50000000  1.00000000  0.35248407
   0.00000000  0.50000000  0.35248407
   0.50000000  0.50000000  0.35158265
   0.24891107  0.24891107  0.14571824
   0.75108893  0.24891107  0.14571824
   0.24891107  0.75108893  0.14571824
   0.75108893  0.75108893  0.14571824
   0.50000000  1.00000000  1.00000000
   0.00000000  0.50000000  1.00000000
   0.50000000  0.50000000  1.00000000
   0.25013769  0.25013769  0.50000000
   0.74986231  0.25013769  0.50000000
   0.25013769  0.74986231  0.50000000
   0.74986231  0.74986231  0.50000000
   0.00000000  0.24953517  0.75047346
   0.50000000  0.24967017  0.75139378
   0.00000000  0.75046483  0.75047346
   0.50000000  0.75032983  0.75139378
   0.24953517  1.00000000  0.75047346
   0.75046483  1.00000000  0.75047346
   0.24967017  0.50000000  0.75139378
   0.75032983  0.50000000  0.75139378
   0.24953517  1.00000000  0.24952654
   0.75046483  1.00000000  0.24952654
   0.24967017  0.50000000  0.24860622
   0.75032983  0.50000000  0.24860622
   0.00000000  0.24953517  0.24952654
   0.50000000  0.24967017  0.24860622
   0.00000000  0.75046483  0.24952654
   0.50000000  0.75032983  0.24860622
   0.00000000  1.00000000  1.00000000
unknown system                          