  40  40   0   0
  0.1708584E+02  0.7565754E-09  0.7565754E-09  0.1193966E-08  0.5000000E-15
  1.000000000000000E-004
  CAR 
 unknown system                          
     15.16804923    -16.89695204  301      7.69957602      1.00000000
    -16.897  0.0000E+00  0.0000E+00
    -16.790  0.0000E+00  0.0000E+00
    -16.683  0.0000E+00  0.0000E+00
    -16.576  0.0000E+00  0.0000E+00
    -16.469  0.0000E+00  0.0000E+00
    -16.363  0.0000E+00  0.0000E+00
    -16.256  0.0000E+00  0.0000E+00
    -16.149  0.0000E+00  0.0000E+00
    -16.042  0.0000E+00  0.0000E+00
    -15.935  0.0000E+00  0.0000E+00
    -15.828  0.0000E+00  0.0000E+00
    -15.721  0.1190E-16  0.1272E-17
    -15.614  0.1685E-07  0.1801E-08
    -15.507  0.4934E-02  0.5274E-03
    -15.401  0.9131E+00  0.9813E-01
    -15.294  0.1422E+01  0.2501E+00
    -15.187  0.2670E+01  0.5355E+00
    -15.080  0.8188E+01  0.1411E+01
    -14.973  0.1769E+01  0.1600E+01
    -14.866  0.2246E-02  0.1600E+01
    -14.759  0.1367E-08  0.1600E+01
    -14.652  0.0000E+00  0.1600E+01
    -14.546  0.0000E+00  0.1600E+01
    -14.439  0.0000E+00  0.1600E+01
    -14.332  0.0000E+00  0.1600E+01
    -14.225  0.0000E+00  0.1600E+01
    -14.118  0.0000E+00  0.1600E+01
    -14.011  0.0000E+00  0.1600E+01
    -13.904  0.0000E+00  0.1600E+01
    -13.797  0.0000E+00  0.1600E+01
    -13.690  0.0000E+00  0.1600E+01
    -13.584  0.0000E+00  0.1600E+01
    -13.477  0.0000E+00  0.1600E+01
    -13.370  0.0000E+00  0.1600E+01
    -13.263  0.0000E+00  0.1600E+01
    -13.156  0.0000E+00  0.1600E+01
    -13.049  0.0000E+00  0.1600E+01
    -12.942  0.0000E+00  0.1600E+01
    -12.835  0.0000E+00  0.1600E+01
    -12.729  0.0000E+00  0.1600E+01
    -12.622  0.0000E+00  0.1600E+01
    -12.515  0.2516E-13  0.1600E+01
    -12.408  0.5645E-06  0.1600E+01
    -12.301  0.2982E-02  0.1600E+01
    -12.194  0.2411E-01  0.1603E+01
    -12.087  0.8197E-01  0.1612E+01
    -11.980  0.8360E-01  0.1621E+01
    -11.873  0.1876E-01  0.1623E+01
    -11.767  0.6169E-01  0.1629E+01
    -11.660  0.1532E+00  0.1646E+01
    -11.553  0.6470E-01  0.1652E+01
    -11.446  0.4857E-02  0.1653E+01
    -11.339  0.7554E-01  0.1661E+01
    -11.232  0.1117E+00  0.1673E+01
    -11.125  0.1729E+00  0.1692E+01
    -11.018  0.1748E-01  0.1693E+01
    -10.911  0.1527E+00  0.1710E+01
    -10.805  0.2635E-01  0.1713E+01
    -10.698  0.4756E-01  0.1718E+01
    -10.591  0.2956E+00  0.1749E+01
    -10.484  0.1418E+00  0.1764E+01
    -10.377  0.1095E+00  0.1776E+01
    -10.270  0.1783E+00  0.1795E+01
    -10.163  0.1179E+00  0.1808E+01
    -10.056  0.4392E+00  0.1855E+01
     -9.950  0.2715E-01  0.1858E+01
     -9.843  0.6076E-01  0.1864E+01
     -9.736  0.1704E+00  0.1882E+01
     -9.629  0.1422E+00  0.1897E+01
     -9.522  0.6821E-01  0.1905E+01
     -9.415  0.1209E+00  0.1918E+01
     -9.308  0.2168E-01  0.1920E+01
     -9.201  0.1649E-03  0.1920E+01
     -9.094  0.5024E-09  0.1920E+01
     -8.988  0.0000E+00  0.1920E+01
     -8.881  0.0000E+00  0.1920E+01
     -8.774  0.0000E+00  0.1920E+01
     -8.667  0.0000E+00  0.1920E+01
     -8.560  0.0000E+00  0.1920E+01
     -8.453  0.0000E+00  0.1920E+01
     -8.346  0.0000E+00  0.1920E+01
     -8.239  0.0000E+00  0.1920E+01
     -8.133  0.0000E+00  0.1920E+01
     -8.026  0.0000E+00  0.1920E+01
     -7.919  0.0000E+00  0.1920E+01
     -7.812  0.0000E+00  0.1920E+01
     -7.705  0.0000E+00  0.1920E+01
     -7.598  0.0000E+00  0.1920E+01
     -7.491  0.0000E+00  0.1920E+01
     -7.384  0.0000E+00  0.1920E+01
     -7.277  0.0000E+00  0.1920E+01
     -7.171  0.0000E+00  0.1920E+01
     -7.064  0.0000E+00  0.1920E+01
     -6.957  0.0000E+00  0.1920E+01
     -6.850  0.0000E+00  0.1920E+01
     -6.743  0.0000E+00  0.1920E+01
     -6.636  0.0000E+00  0.1920E+01
     -6.529  0.0000E+00  0.1920E+01
     -6.422  0.0000E+00  0.1920E+01
     -6.316  0.0000E+00  0.1920E+01
     -6.209  0.0000E+00  0.1920E+01
     -6.102  0.6379E-10  0.1920E+01
     -5.995  0.2400E-04  0.1920E+01
     -5.888  0.2716E-02  0.1920E+01
     -5.781  0.1122E-01  0.1921E+01
     -5.674  0.2364E-01  0.1924E+01
     -5.567  0.3916E-01  0.1928E+01
     -5.460  0.3111E-01  0.1932E+01
     -5.354  0.2662E-01  0.1934E+01
     -5.247  0.7516E-01  0.1942E+01
     -5.140  0.9247E-01  0.1952E+01
     -5.033  0.4482E-01  0.1957E+01
     -4.926  0.5212E-01  0.1963E+01
     -4.819  0.8182E-01  0.1971E+01
     -4.712  0.6602E-01  0.1978E+01
     -4.605  0.1015E+00  0.1989E+01
     -4.498  0.7401E-01  0.1997E+01
     -4.392  0.8077E-01  0.2006E+01
     -4.285  0.1261E+00  0.2019E+01
     -4.178  0.9953E-01  0.2030E+01
     -4.071  0.8720E-01  0.2039E+01
     -3.964  0.1356E+00  0.2054E+01
     -3.857  0.8070E-01  0.2062E+01
     -3.750  0.6826E-01  0.2070E+01
     -3.643  0.5732E-01  0.2076E+01
     -3.537  0.4457E-01  0.2081E+01
     -3.430  0.1126E+00  0.2093E+01
     -3.323  0.9394E-01  0.2103E+01
     -3.216  0.1876E+00  0.2123E+01
     -3.109  0.2868E+00  0.2153E+01
     -3.002  0.3170E+00  0.2187E+01
     -2.895  0.3048E+00  0.2220E+01
     -2.788  0.1004E+00  0.2231E+01
     -2.681  0.1046E+00  0.2242E+01
     -2.575  0.1746E+00  0.2260E+01
     -2.468  0.7614E-01  0.2269E+01
     -2.361  0.1549E+00  0.2285E+01
     -2.254  0.1050E+00  0.2296E+01
     -2.147  0.1581E+00  0.2313E+01
     -2.040  0.7761E-01  0.2322E+01
     -1.933  0.7215E-02  0.2322E+01
     -1.826  0.6302E-01  0.2329E+01
     -1.720  0.8645E-01  0.2338E+01
     -1.613  0.5098E-01  0.2344E+01
     -1.506  0.3434E-01  0.2347E+01
     -1.399  0.2949E-02  0.2348E+01
     -1.292  0.7738E-01  0.2356E+01
     -1.185  0.1117E+00  0.2368E+01
     -1.078  0.7517E-01  0.2376E+01
     -0.971  0.1491E-01  0.2378E+01
     -0.864  0.1449E-01  0.2379E+01
     -0.758  0.3985E-01  0.2383E+01
     -0.651  0.1600E-01  0.2385E+01
     -0.544  0.5707E-01  0.2391E+01
     -0.437  0.1731E-01  0.2393E+01
     -0.330  0.1908E-01  0.2395E+01
     -0.223  0.2467E-01  0.2398E+01
     -0.116  0.1004E-01  0.2399E+01
     -0.009  0.9736E-03  0.2399E+01
      0.097  0.6640E-02  0.2400E+01
      0.204  0.2786E-02  0.2400E+01
      0.311  0.1355E-02  0.2400E+01
      0.418  0.1247E-05  0.2400E+01
      0.525  0.2371E-12  0.2400E+01
      0.632  0.0000E+00  0.2400E+01
      0.739  0.0000E+00  0.2400E+01
      0.846  0.0000E+00  0.2400E+01
      0.953  0.0000E+00  0.2400E+01
      1.059  0.7016E-14  0.2400E+01
      1.166  0.2340E-06  0.2400E+01
      1.273  0.1651E-02  0.2400E+01
      1.380  0.1809E-01  0.2402E+01
      1.487  0.1233E+00  0.2415E+01
      1.594  0.3152E+00  0.2449E+01
      1.701  0.2063E+00  0.2471E+01
      1.808  0.1434E+00  0.2486E+01
      1.915  0.1926E+00  0.2507E+01
      2.021  0.2731E+00  0.2536E+01
      2.128  0.3051E+00  0.2569E+01
      2.235  0.2136E+00  0.2592E+01
      2.342  0.1698E+00  0.2610E+01
      2.449  0.1833E+00  0.2629E+01
      2.556  0.1806E+00  0.2649E+01
      2.663  0.1677E+00  0.2667E+01
      2.770  0.1071E+00  0.2678E+01
      2.876  0.2517E+00  0.2705E+01
      2.983  0.3762E+00  0.2745E+01
      3.090  0.1685E+00  0.2763E+01
      3.197  0.2718E+00  0.2792E+01
      3.304  0.1904E+00  0.2813E+01
      3.411  0.2159E+00  0.2836E+01
      3.518  0.2292E+00  0.2860E+01
      3.625  0.2588E+00  0.2888E+01
      3.732  0.2251E+00  0.2912E+01
      3.838  0.1388E+00  0.2927E+01
      3.945  0.1665E+00  0.2944E+01
      4.052  0.2458E+00  0.2971E+01
      4.159  0.3519E+00  0.3008E+01
      4.266  0.2385E+00  0.3034E+01
      4.373  0.2451E+00  0.3060E+01
      4.480  0.1359E+00  0.3075E+01
      4.587  0.1954E+00  0.3095E+01
      4.693  0.2193E+00  0.3119E+01
      4.800  0.1919E+00  0.3139E+01
      4.907  0.1182E+00  0.3152E+01
      5.014  0.2050E+00  0.3174E+01
      5.121  0.3940E+00  0.3216E+01
      5.228  0.2886E+00  0.3247E+01
      5.335  0.2595E+00  0.3275E+01
      5.442  0.3525E+00  0.3312E+01
      5.549  0.3759E+00  0.3352E+01
      5.655  0.2292E+00  0.3377E+01
      5.762  0.3235E+00  0.3412E+01
      5.869  0.3206E+00  0.3446E+01
      5.976  0.2023E+00  0.3467E+01
      6.083  0.9087E-01  0.3477E+01
      6.190  0.3568E+00  0.3515E+01
      6.297  0.3522E+00  0.3553E+01
      6.404  0.2752E+00  0.3582E+01
      6.510  0.4026E+00  0.3625E+01
      6.617  0.2439E+00  0.3651E+01
      6.724  0.3071E+00  0.3684E+01
      6.831  0.3060E+00  0.3717E+01
      6.938  0.1217E+00  0.3730E+01
      7.045  0.2057E+00  0.3752E+01
      7.152  0.9654E-01  0.3762E+01
      7.259  0.2054E+00  0.3784E+01
      7.366  0.2358E+00  0.3809E+01
      7.472  0.2372E+00  0.3835E+01
      7.579  0.4890E-01  0.3840E+01
      7.686  0.4172E-04  0.3840E+01
      7.793  0.1097E-10  0.3840E+01
      7.900  0.0000E+00  0.3840E+01
      8.007  0.2651E-12  0.3840E+01
      8.114  0.1327E-05  0.3840E+01
      8.221  0.1379E-02  0.3840E+01
      8.328  0.2502E-02  0.3840E+01
      8.434  0.1549E-02  0.3841E+01
      8.541  0.9093E-02  0.3842E+01
      8.648  0.4940E-02  0.3842E+01
      8.755  0.2603E-04  0.3842E+01
      8.862  0.2350E-06  0.3842E+01
      8.969  0.2441E-02  0.3842E+01
      9.076  0.3831E-01  0.3846E+01
      9.183  0.5562E-01  0.3852E+01
      9.289  0.3930E-01  0.3857E+01
      9.396  0.3770E-02  0.3857E+01
      9.503  0.7080E-01  0.3865E+01
      9.610  0.9524E-01  0.3875E+01
      9.717  0.6078E-01  0.3881E+01
      9.824  0.8730E-01  0.3891E+01
      9.931  0.5848E-01  0.3897E+01
     10.038  0.1123E+00  0.3909E+01
     10.145  0.9771E-01  0.3919E+01
     10.251  0.1126E+00  0.3931E+01
     10.358  0.3282E+00  0.3966E+01
     10.465  0.1970E+00  0.3987E+01
     10.572  0.2217E+00  0.4011E+01
     10.679  0.1028E+00  0.4022E+01
     10.786  0.2027E+00  0.4044E+01
     10.893  0.2569E+00  0.4071E+01
     11.000  0.2425E+00  0.4097E+01
     11.106  0.1569E+00  0.4114E+01
     11.213  0.3769E+00  0.4154E+01
     11.320  0.2903E+00  0.4185E+01
     11.427  0.1887E+00  0.4205E+01
     11.534  0.1697E+00  0.4224E+01
     11.641  0.2189E+00  0.4247E+01
     11.748  0.1960E+00  0.4268E+01
     11.855  0.2884E+00  0.4299E+01
     11.962  0.2343E+00  0.4324E+01
     12.068  0.1228E+00  0.4337E+01
     12.175  0.1554E+00  0.4353E+01
     12.282  0.1292E+00  0.4367E+01
     12.389  0.1443E+00  0.4383E+01
     12.496  0.2014E+00  0.4404E+01
     12.603  0.1484E+00  0.4420E+01
     12.710  0.2033E+00  0.4442E+01
     12.817  0.3723E+00  0.4482E+01
     12.923  0.3319E+00  0.4517E+01
     13.030  0.1948E+00  0.4538E+01
     13.137  0.2140E+00  0.4561E+01
     13.244  0.2604E+00  0.4589E+01
     13.351  0.2663E+00  0.4617E+01
     13.458  0.1047E+00  0.4628E+01
     13.565  0.8090E-01  0.4637E+01
     13.672  0.1667E-01  0.4639E+01
     13.779  0.1188E-01  0.4640E+01
     13.885  0.2570E-03  0.4640E+01
     13.992  0.3051E-08  0.4640E+01
     14.099  0.6059E-17  0.4640E+01
     14.206  0.0000E+00  0.4640E+01
     14.313  0.0000E+00  0.4640E+01
     14.420  0.0000E+00  0.4640E+01
     14.527  0.0000E+00  0.4640E+01
     14.634  0.0000E+00  0.4640E+01
     14.741  0.0000E+00  0.4640E+01
     14.847  0.0000E+00  0.4640E+01
     14.954  0.0000E+00  0.4640E+01
     15.061  0.0000E+00  0.4640E+01
     15.168  0.0000E+00  0.4640E+01
