<?xml version="1.0" encoding="ISO-8859-1"?>
<modeling>
 <generator>
  <i name="program" type="string">vasp </i>
  <i name="version" type="string">6.4.3  </i>
  <i name="subversion" type="string">19Mar24 (build Apr 09 2025 20:43:19) complex                          parallel </i>
  <i name="platform" type="string">LinuxIFC </i>
  <i name="date" type="string">2025 04 12 </i>
  <i name="time" type="string">19:25:41 </i>
 </generator>
 <incar>
  <i type="string" name="PREC">Accurate</i>
  <i type="int" name="IALGO">    38</i>
  <i type="logical" name="ADDGRID"> T  </i>
  <i type="int" name="NELMIN">     5</i>
  <i type="int" name="IBRION">     2</i>
  <i name="EDIFF">      0.00000001</i>
  <i name="EDIFFG">     -0.00001000</i>
  <i type="int" name="NSW">   100</i>
  <i type="int" name="ISIF">     2</i>
  <i name="ENCUT">    520.00000000</i>
  <i type="logical" name="LREAL"> F  </i>
  <i type="int" name="ISMEAR">     0</i>
  <i name="SIGMA">      0.05000000</i>
  <i type="logical" name="LWAVE"> F  </i>
  <i type="logical" name="LCHARG"> F  </i>
 </incar>
 <primitive_cell>
  <structure name="primitive_cell" >
   <crystal>
    <varray name="basis" >
     <v>       7.56575348       0.00000000       0.00000000 </v>
     <v>       0.00000000       7.56575348       0.00000000 </v>
     <v>       0.00000000       0.00000000      11.93965724 </v>
    </varray>
    <i name="volume">    683.43345184 </i>
    <varray name="rec_basis" >
     <v>       0.13217454       0.00000000       0.00000000 </v>
     <v>       0.00000000       0.13217454       0.00000000 </v>
     <v>       0.00000000       0.00000000       0.08375450 </v>
    </varray>
   </crystal>
   <varray name="positions" >
    <v>       0.24864636       0.24864636       0.85905303 </v>
    <v>       0.75135364       0.24864636       0.85905303 </v>
    <v>       0.24864636       0.75135364       0.85905303 </v>
    <v>       0.75135364       0.75135364       0.85905303 </v>
    <v>       0.00000000       0.00000000       0.64171235 </v>
    <v>       0.50000000       0.00000000       0.64265294 </v>
    <v>       0.00000000       0.50000000       0.64265294 </v>
    <v>       0.50000000       0.50000000       0.64366857 </v>
    <v>       0.00000000       0.00000000       0.35828765 </v>
    <v>       0.50000000       0.00000000       0.35734706 </v>
    <v>       0.00000000       0.50000000       0.35734706 </v>
    <v>       0.50000000       0.50000000       0.35633143 </v>
    <v>       0.24864636       0.24864636       0.14094697 </v>
    <v>       0.75135364       0.24864636       0.14094697 </v>
    <v>       0.24864636       0.75135364       0.14094697 </v>
    <v>       0.75135364       0.75135364       0.14094697 </v>
    <v>       0.50000000       0.00000000       0.00000000 </v>
    <v>       0.00000000       0.50000000       0.00000000 </v>
    <v>       0.50000000       0.50000000       0.00000000 </v>
    <v>       0.25051125       0.25051125       0.50000000 </v>
    <v>       0.74948875       0.25051125       0.50000000 </v>
    <v>       0.25051125       0.74948875       0.50000000 </v>
    <v>       0.74948875       0.74948875       0.50000000 </v>
    <v>       0.00000000       0.24936832       0.75018517 </v>
    <v>       0.50000000       0.24949997       0.75159089 </v>
    <v>       0.00000000       0.75063168       0.75018517 </v>
    <v>       0.50000000       0.75050003       0.75159089 </v>
    <v>       0.24936832       0.00000000       0.75018517 </v>
    <v>       0.75063168       0.00000000       0.75018517 </v>
    <v>       0.24949997       0.50000000       0.75159089 </v>
    <v>       0.75050003       0.50000000       0.75159089 </v>
    <v>       0.24936832       0.00000000       0.24981483 </v>
    <v>       0.75063168       0.00000000       0.24981483 </v>
    <v>       0.24949997       0.50000000       0.24840911 </v>
    <v>       0.75050003       0.50000000       0.24840911 </v>
    <v>       0.00000000       0.24936832       0.24981483 </v>
    <v>       0.50000000       0.24949997       0.24840911 </v>
    <v>       0.00000000       0.75063168       0.24981483 </v>
    <v>       0.50000000       0.75050003       0.24840911 </v>
    <v>       0.00000000       0.00000000       0.00000000 </v>
   </varray>
  </structure>
  <varray name="primitive_index" >
   <v type="int" >        1 </v>
   <v type="int" >        2 </v>
   <v type="int" >        3 </v>
   <v type="int" >        4 </v>
   <v type="int" >        5 </v>
   <v type="int" >        6 </v>
   <v type="int" >        7 </v>
   <v type="int" >        8 </v>
   <v type="int" >        9 </v>
   <v type="int" >       10 </v>
   <v type="int" >       11 </v>
   <v type="int" >       12 </v>
   <v type="int" >       13 </v>
   <v type="int" >       14 </v>
   <v type="int" >       15 </v>
   <v type="int" >       16 </v>
   <v type="int" >       17 </v>
   <v type="int" >       18 </v>
   <v type="int" >       19 </v>
   <v type="int" >       20 </v>
   <v type="int" >       21 </v>
   <v type="int" >       22 </v>
   <v type="int" >       23 </v>
   <v type="int" >       24 </v>
   <v type="int" >       25 </v>
   <v type="int" >       26 </v>
   <v type="int" >       27 </v>
   <v type="int" >       28 </v>
   <v type="int" >       29 </v>
   <v type="int" >       30 </v>
   <v type="int" >       31 </v>
   <v type="int" >       32 </v>
   <v type="int" >       33 </v>
   <v type="int" >       34 </v>
   <v type="int" >       35 </v>
   <v type="int" >       36 </v>
   <v type="int" >       37 </v>
   <v type="int" >       38 </v>
   <v type="int" >       39 </v>
   <v type="int" >       40 </v>
  </varray>
 </primitive_cell>
 <kpoints>
  <generation param="Gamma">
   <v type="int" name="divisions">       4        4        3 </v>
   <v name="usershift">      0.00000000       0.00000000       0.00000000 </v>
   <v name="genvec1">      0.25000000       0.00000000       0.00000000 </v>
   <v name="genvec2">      0.00000000       0.25000000       0.00000000 </v>
   <v name="genvec3">      0.00000000       0.00000000       0.33333333 </v>
   <v name="shift">      0.00000000       0.00000000       0.00000000 </v>
  </generation>
  <varray name="kpointlist" >
   <v>       0.00000000       0.00000000       0.00000000 </v>
   <v>       0.25000000       0.00000000       0.00000000 </v>
   <v>       0.50000000       0.00000000       0.00000000 </v>
   <v>       0.25000000       0.25000000       0.00000000 </v>
   <v>       0.50000000       0.25000000       0.00000000 </v>
   <v>       0.50000000       0.50000000       0.00000000 </v>
   <v>       0.00000000       0.00000000       0.33333333 </v>
   <v>       0.25000000       0.00000000       0.33333333 </v>
   <v>       0.50000000       0.00000000       0.33333333 </v>
   <v>       0.25000000       0.25000000       0.33333333 </v>
   <v>       0.50000000       0.25000000       0.33333333 </v>
   <v>       0.50000000       0.50000000       0.33333333 </v>
  </varray>
  <varray name="weights" >
   <v>       0.02083333 </v>
   <v>       0.08333333 </v>
   <v>       0.04166667 </v>
   <v>       0.08333333 </v>
   <v>       0.08333333 </v>
   <v>       0.02083333 </v>
   <v>       0.04166667 </v>
   <v>       0.16666667 </v>
   <v>       0.08333333 </v>
   <v>       0.16666667 </v>
   <v>       0.16666667 </v>
   <v>       0.04166667 </v>
  </varray>
 </kpoints>
 <parameters>
  <separator name="general" >
   <i type="string" name="SYSTEM">unknown system</i>
   <i type="logical" name="LCOMPAT"> F  </i>
  </separator>
  <separator name="electronic" >
   <i type="string" name="PREC">accura</i>
   <i name="ENMAX">    520.00000000</i>
   <i name="ENAUG">    605.39200000</i>
   <i name="EDIFF">      0.00000001</i>
   <i type="int" name="IALGO">    38</i>
   <i type="int" name="IWAVPR">    11</i>
   <i type="int" name="NBANDS">   232</i>
   <i type="int" name="NBANDSLOW">    -1</i>
   <i type="int" name="NBANDSHIGH">    -1</i>
   <i name="NELECT">    384.00000000</i>
   <i type="int" name="TURBO">     0</i>
   <i type="int" name="IRESTART">     0</i>
   <i type="int" name="NREBOOT">     0</i>
   <i type="int" name="NMIN">     0</i>
   <i name="EREF">      0.00000000</i>
   <separator name="electronic smearing" >
    <i type="int" name="ISMEAR">     0</i>
    <i name="SIGMA">      0.05000000</i>
    <i name="KSPACING">      0.50000000</i>
    <i type="logical" name="KGAMMA"> T  </i>
    <i type="logical" name="KBLOWUP"> T  </i>
   </separator>
   <separator name="electronic projectors" >
    <i type="logical" name="LREAL"> F  </i>
    <v name="ROPT">      0.00000000      0.00000000      0.00000000      0.00000000</v>
    <i type="int" name="LMAXPAW">  -100</i>
    <i type="int" name="LMAXMIX">     2</i>
    <i type="logical" name="NLSPLINE"> F  </i>
   </separator>
   <separator name="electronic startup" >
    <i type="int" name="ISTART">     0</i>
    <i type="int" name="ICHARG">     2</i>
    <i type="int" name="INIWAV">     1</i>
   </separator>
   <separator name="electronic spin" >
    <i type="int" name="ISPIN">     1</i>
    <i type="logical" name="LNONCOLLINEAR"> F  </i>
    <v name="MAGMOM">      1.00000000      1.00000000      1.00000000      1.00000000      1.00000000      1.00000000      1.00000000      1.00000000      1.00000000      1.00000000      1.00000000      1.00000000      1.00000000      1.00000000      1.00000000      1.00000000      1.00000000      1.00000000      1.00000000      1.00000000
      1.00000000      1.00000000      1.00000000      1.00000000      1.00000000      1.00000000      1.00000000      1.00000000      1.00000000      1.00000000      1.00000000      1.00000000      1.00000000      1.00000000      1.00000000      1.00000000      1.00000000      1.00000000      1.00000000      1.00000000
</v>
    <i name="NUPDOWN">     -1.00000000</i>
    <i type="logical" name="LSORBIT"> F  </i>
    <v name="SAXIS">      0.00000000      0.00000000      1.00000000</v>
    <i type="logical" name="LSPIRAL"> F  </i>
    <v name="QSPIRAL">      0.00000000      0.00000000      0.00000000</v>
    <i type="logical" name="LZEROZ"> F  </i>
   </separator>
   <separator name="electronic exchange-correlation" >
    <i type="logical" name="LASPH"> F  </i>
   </separator>
   <separator name="electronic convergence" >
    <i type="int" name="NELM">    60</i>
    <i type="int" name="NELMDL">    -5</i>
    <i type="int" name="NELMIN">     5</i>
    <i name="ENINI">    520.00000000</i>
    <separator name="electronic convergence detail" >
     <i type="logical" name="LDIAG"> T  </i>
     <i type="logical" name="LSUBROT"> F  </i>
     <i name="WEIMIN">      0.00100000</i>
     <i name="EBREAK">      0.00000000</i>
     <i name="DEPER">      0.30000000</i>
     <i type="int" name="NRMM">     4</i>
     <i name="TIME">      0.40000000</i>
    </separator>
   </separator>
   <separator name="electronic mixer" >
    <i name="AMIX">      0.40000000</i>
    <i name="BMIX">      1.00000000</i>
    <i name="AMIN">      0.10000000</i>
    <i name="AMIX_MAG">      1.60000000</i>
    <i name="BMIX_MAG">      1.00000000</i>
    <separator name="electronic mixer details" >
     <i type="int" name="IMIX">     4</i>
     <i type="logical" name="MIXFIRST"> F  </i>
     <i type="int" name="MAXMIX">   -45</i>
     <i name="WC">    100.00000000</i>
     <i type="int" name="INIMIX">     1</i>
     <i type="int" name="MIXPRE">     1</i>
     <i type="int" name="MREMOVE">     5</i>
    </separator>
   </separator>
   <separator name="electronic dipolcorrection" >
    <i type="logical" name="LDIPOL"> F  </i>
    <i type="logical" name="LMONO"> F  </i>
    <i type="int" name="IDIPOL">     0</i>
    <i name="EPSILON">      1.00000000</i>
    <v name="DIPOL">   -100.00000000   -100.00000000   -100.00000000</v>
    <i name="EFIELD">      0.00000000</i>
    <i type="logical" name="LVACPOTAV"> F  </i>
   </separator>
  </separator>
  <separator name="grids" >
   <i type="int" name="NGX">    56</i>
   <i type="int" name="NGY">    56</i>
   <i type="int" name="NGZ">    90</i>
   <i type="int" name="NGXF">   112</i>
   <i type="int" name="NGYF">   112</i>
   <i type="int" name="NGZF">   180</i>
   <i type="logical" name="ADDGRID"> T  </i>
  </separator>
  <separator name="ionic" >
   <i type="int" name="NSW">   100</i>
   <i type="int" name="IBRION">     2</i>
   <i type="int" name="MDALGO">     0</i>
   <i type="int" name="ISIF">     2</i>
   <i name="PSTRESS">      0.00000000</i>
   <i name="EDIFFG">     -0.00001000</i>
   <i type="int" name="NFREE">     1</i>
   <i name="POTIM">      0.50000000</i>
   <i name="SMASS">     -3.00000000</i>
   <i name="SCALEE">      1.00000000</i>
  </separator>
  <separator name="ionic md" >
   <i name="TEBEG">      0.00010000</i>
   <i name="TEEND">      0.00010000</i>
   <i type="int" name="NBLOCK">     1</i>
   <i type="int" name="KBLOCK">   100</i>
   <i type="int" name="NPACO">   256</i>
   <i name="APACO">     10.00000000</i>
  </separator>
  <separator name="symmetry" >
   <i type="int" name="ISYM">     2</i>
   <i name="SYMPREC">      0.00001000</i>
  </separator>
  <separator name="dos" >
   <i type="int" name="LORBIT">     0</i>
   <v name="RWIGS">     -1.00000000     -1.00000000     -1.00000000     -1.00000000</v>
   <i type="int" name="NEDOS">   301</i>
   <i name="EMIN">     10.00000000</i>
   <i name="EMAX">    -10.00000000</i>
   <i name="EFERMI">      0.00000000</i>
  </separator>
  <separator name="writing" >
   <i type="int" name="NWRITE">     2</i>
   <i type="logical" name="LWAVE"> F  </i>
   <i type="logical" name="LDOWNSAMPLE"> F  </i>
   <i type="logical" name="LCHARG"> F  </i>
   <i type="logical" name="LPARD"> F  </i>
   <i type="logical" name="LVTOT"> F  </i>
   <i type="logical" name="LVHAR"> F  </i>
   <i type="logical" name="LELF"> F  </i>
   <i type="logical" name="LOPTICS"> F  </i>
   <v name="STM">      0.00000000      0.00000000      0.00000000      0.00000000      0.00000000      0.00000000      0.00000000</v>
  </separator>
  <separator name="performance" >
   <i type="int" name="NPAR">     4</i>
   <i type="int" name="NSIM">     4</i>
   <i type="int" name="NBLK">    -1</i>
   <i type="logical" name="LPLANE"> T  </i>
   <i type="logical" name="LSCALAPACK"> T  </i>
   <i type="logical" name="LSCAAWARE"> F  </i>
   <i type="logical" name="LSCALU"> F  </i>
   <i type="logical" name="LASYNC"> F  </i>
   <i type="logical" name="LORBITALREAL"> F  </i>
  </separator>
  <separator name="miscellaneous" >
   <i type="int" name="IDIOT">     3</i>
   <i type="int" name="PHON_NSTRUCT">    -1</i>
   <i type="logical" name="LMUSIC"> F  </i>
   <v name="POMASS">    208.98000000     78.96000000     16.00000000     32.06600000</v>
   <v name="DARWINR">      0.00000000      0.00000000      0.00000000      0.00000000</v>
   <v name="DARWINV">      1.00000000      1.00000000      1.00000000      1.00000000</v>
   <i type="logical" name="LCORR"> T  </i>
  </separator>
  <i type="logical" name="GGA_COMPAT"> T  </i>
  <i type="logical" name="LBERRY"> F  </i>
  <i type="int" name="ICORELEVEL">     0</i>
  <i type="logical" name="LDAU"> F  </i>
  <i type="int" name="I_CONSTRAINED_M">     0</i>
  <separator name="electronic exchange-correlation" >
   <i type="string" name="GGA    ">PE</i>
   <i type="string" name="XC_C">1</i>
   <i type="int" name="VOSKOWN">     0</i>
   <i type="logical" name="LHFCALC"> F  </i>
   <i type="string" name="PRECFOCK"></i>
   <i type="logical" name="LSYMGRAD"> F  </i>
   <i type="logical" name="LHFONE"> F  </i>
   <i type="logical" name="LRHFCALC"> F  </i>
   <i type="logical" name="LTHOMAS"> F  </i>
   <i type="logical" name="LMODELHF"> F  </i>
   <i type="logical" name="LFOCKACE"> F  </i>
   <i name="ENCUT4O">     -1.00000000</i>
   <i type="int" name="EXXOEP">     0</i>
   <i type="int" name="FOURORBIT">     0</i>
   <i name="AEXX">      0.00000000</i>
   <i name="HFALPHA">      0.00000000</i>
   <i name="MCALPHA">      0.00000000</i>
   <i name="ALDAX">      1.00000000</i>
   <i name="AGGAX">      1.00000000</i>
   <i name="AMGGAX">      1.00000000</i>
   <i name="ALDAC">      1.00000000</i>
   <i name="AGGAC">      1.00000000</i>
   <i name="AMGGAC">      1.00000000</i>
   <i type="int" name="NKREDX">     1</i>
   <i type="int" name="NKREDY">     1</i>
   <i type="int" name="NKREDZ">     1</i>
   <i type="logical" name="SHIFTRED"> F  </i>
   <i type="logical" name="ODDONLY"> F  </i>
   <i type="logical" name="EVENONLY"> F  </i>
   <i type="int" name="LMAXFOCK">     0</i>
   <i type="int" name="NMAXFOCKAE">     0</i>
   <i type="logical" name="LFOCKAEDFT"> F  </i>
   <i name="HFSCREEN">      0.00000000</i>
   <i name="HFSCREENC">      0.00000000</i>
   <i type="int" name="NBANDSGWLOW">     0</i>
  </separator>
  <separator name="vdW DFT" >
   <i type="logical" name="LUSE_VDW"> F  </i>
   <i type="int" name="IVDW_NL">    -1</i>
   <i type="logical" name="LSPIN_VDW"> F  </i>
   <i name="ZAB_VDW">     -0.84910000</i>
   <i name="GAMMA_VDW">      1.39626340</i>
   <i name="ALPHA_VDW">      0.00000000</i>
   <i name="PARAM1">      0.12340000</i>
   <i name="PARAM2">      1.00000000</i>
   <i name="BPARAM">      6.30000000</i>
   <i name="CPARAM">      0.00930000</i>
  </separator>
  <separator name="model GW" >
   <i type="int" name="MODEL_GW">     0</i>
   <i name="MODEL_EPS0">     10.25150178</i>
   <i name="MODEL_ALPHA">      1.00000000</i>
  </separator>
  <separator name="linear response parameters" >
   <i type="logical" name="LEPSILON"> F  </i>
   <i type="logical" name="LRPA"> F  </i>
   <i type="logical" name="LNABLA"> F  </i>
   <i type="logical" name="LVEL"> F  </i>
   <i name="CSHIFT">      0.10000000</i>
   <i name="OMEGAMAX">     -1.00000000</i>
   <i name="DEG_THRESHOLD">      0.00200000</i>
   <i name="RTIME">     -0.10000000</i>
   <i name="WPLASMAI">      0.00000000</i>
   <v name="DFIELD">      0.00000000      0.00000000      0.00000000</v>
   <v name="WPLASMA">      0.00000000      0.00000000      0.00000000      0.00000000      0.00000000      0.00000000      0.00000000      0.00000000      0.00000000</v>
  </separator>
  <separator name="orbital magnetization" >
   <i type="logical" name="NUCIND"> F  </i>
   <v name="MAGPOS">      0.00000000      0.00000000      0.00000000</v>
   <i type="logical" name="LNICSALL"> T  </i>
   <i type="logical" name="ORBITALMAG"> F  </i>
   <i type="logical" name="LMAGBLOCH"> F  </i>
   <i type="logical" name="LCHIMAG"> F  </i>
   <i type="logical" name="LGAUGE"> T  </i>
   <i type="int" name="MAGATOM">     0</i>
   <v name="MAGDIPOL">      0.00000000      0.00000000      0.00000000</v>
   <v name="AVECCONST">      0.00000000      0.00000000      0.00000000</v>
  </separator>
  <separator name="response functions" >
   <i type="logical" name="LALL_IN_ONE"> F  </i>
   <i type="int" name="IALL_IN_ONE">    -1</i>
   <i type="int" name="NBANDS_WAVE">    -1</i>
   <i type="logical" name="LFINITE_TEMPERATURE"> F  </i>
   <i type="logical" name="LADDER"> F  </i>
   <i type="logical" name="LRPAFORCE"> F  </i>
   <i type="logical" name="LFXC"> F  </i>
   <i type="logical" name="LHARTREE"> T  </i>
   <i type="int" name="IBSE">     0</i>
   <v type="int" name="KPOINT">    -1     0     0     0</v>
   <i type="logical" name="LTCTC"> F  </i>
   <i type="logical" name="LTCTE"> F  </i>
   <i type="logical" name="LTETE"> F  </i>
   <i type="logical" name="LTRIPLET"> F  </i>
   <i type="logical" name="LFXCEPS"> F  </i>
   <i type="logical" name="LFXHEG"> F  </i>
   <i type="int" name="NATURALO">     2</i>
   <i type="logical" name="LHOLEGF"> F  </i>
   <i type="logical" name="L2ORDER"> F  </i>
   <i type="logical" name="LDMP1"> F  </i>
   <i type="logical" name="LMP2LT"> F  </i>
   <i type="logical" name="LSMP2LT"> F  </i>
   <i type="logical" name="LGWLF"> F  </i>
   <i name="ENCUTGW">     -1.60000002</i>
   <i name="ENCUTGWSOFT">     -1.60000002</i>
   <i name="ENCUTLF">     -1.00000000</i>
   <i type="logical" name="ESF_SPLINES"> F  </i>
   <i name="ESF_CONV">      0.01000000</i>
   <i type="int" name="ESF_NINTER">    15</i>
   <i type="int" name="LMAXMP2">    -1</i>
   <i name="SCISSOR">      0.00000000</i>
   <i type="int" name="NOMEGA">     0</i>
   <i type="int" name="NOMEGAR">     0</i>
   <i type="int" name="NBANDSGW">    -1</i>
   <i type="int" name="NBANDSO">    -1</i>
   <i type="int" name="NBANDSV">    -1</i>
   <i type="int" name="NELMGW">     1</i>
   <i type="int" name="NELMHF">     1</i>
   <i type="int" name="DIM">     3</i>
   <i type="int" name="IESPILON">     4</i>
   <i type="int" name="ANTIRES">     0</i>
   <i name="OMEGAMAX">    -30.00000000</i>
   <i name="OMEGAMIN">    -30.00000000</i>
   <i name="OMEGATL">   -200.00000000</i>
   <i type="int" name="OMEGAGRID">     0</i>
   <i name="CSHIFT">     -0.10000000</i>
   <i type="logical" name="LSELFENERGY"> F  </i>
   <i type="logical" name="LSPECTRAL"> F  </i>
   <i type="logical" name="LSPECTRALGW"> F  </i>
   <i type="logical" name="LSINGLES"> F  </i>
   <i type="logical" name="LFERMIGW"> F  </i>
   <i type="logical" name="ODDONLYGW"> F  </i>
   <i type="logical" name="EVENONLYGW"> F  </i>
   <i type="int" name="NKREDLFX">     1</i>
   <i type="int" name="NKREDLFY">     1</i>
   <i type="int" name="NKREDLFZ">     1</i>
   <i type="int" name="MAXMEM">  2800</i>
   <i type="int" name="TELESCOPE">     0</i>
   <i type="int" name="NTAUPAR">    -1</i>
   <i type="int" name="NOMEGAPAR">    -1</i>
   <i name="DAMP_NEWTON">      0.80000001</i>
   <i name="LAMBDA">      1.00000000</i>
  </separator>
  <separator name="External order field" >
   <i name="OFIELD_KAPPA">      0.00000000</i>
   <v name="OFIELD_K">      0.00000000      0.00000000      0.00000000</v>
   <i name="OFIELD_Q6_NEAR">      0.00000000</i>
   <i name="OFIELD_Q6_FAR">      0.00000000</i>
   <i name="OFIELD_A">      0.00000000</i>
  </separator>
  <separator name="optional k-points parameters" >
   <i type="int" name="KPOINTS_OPT_MODE">     1</i>
   <i type="logical" name="LKPOINTS_OPT"> F  </i>
  </separator>
 </parameters>
 <atominfo>
  <atoms>      40 </atoms>
  <types>       4 </types>
  <array name="atoms" >
   <dimension dim="1">ion</dimension>
   <field type="string">element</field>
   <field type="int">atomtype</field>
   <set>
    <rc><c>Bi</c><c>   1</c></rc>
    <rc><c>Bi</c><c>   1</c></rc>
    <rc><c>Bi</c><c>   1</c></rc>
    <rc><c>Bi</c><c>   1</c></rc>
    <rc><c>Bi</c><c>   1</c></rc>
    <rc><c>Bi</c><c>   1</c></rc>
    <rc><c>Bi</c><c>   1</c></rc>
    <rc><c>Bi</c><c>   1</c></rc>
    <rc><c>Bi</c><c>   1</c></rc>
    <rc><c>Bi</c><c>   1</c></rc>
    <rc><c>Bi</c><c>   1</c></rc>
    <rc><c>Bi</c><c>   1</c></rc>
    <rc><c>Bi</c><c>   1</c></rc>
    <rc><c>Bi</c><c>   1</c></rc>
    <rc><c>Bi</c><c>   1</c></rc>
    <rc><c>Bi</c><c>   1</c></rc>
    <rc><c>Se</c><c>   2</c></rc>
    <rc><c>Se</c><c>   2</c></rc>
    <rc><c>Se</c><c>   2</c></rc>
    <rc><c>Se</c><c>   2</c></rc>
    <rc><c>Se</c><c>   2</c></rc>
    <rc><c>Se</c><c>   2</c></rc>
    <rc><c>Se</c><c>   2</c></rc>
    <rc><c>O </c><c>   3</c></rc>
    <rc><c>O </c><c>   3</c></rc>
    <rc><c>O </c><c>   3</c></rc>
    <rc><c>O </c><c>   3</c></rc>
    <rc><c>O </c><c>   3</c></rc>
    <rc><c>O </c><c>   3</c></rc>
    <rc><c>O </c><c>   3</c></rc>
    <rc><c>O </c><c>   3</c></rc>
    <rc><c>O </c><c>   3</c></rc>
    <rc><c>O </c><c>   3</c></rc>
    <rc><c>O </c><c>   3</c></rc>
    <rc><c>O </c><c>   3</c></rc>
    <rc><c>O </c><c>   3</c></rc>
    <rc><c>O </c><c>   3</c></rc>
    <rc><c>O </c><c>   3</c></rc>
    <rc><c>O </c><c>   3</c></rc>
    <rc><c>S </c><c>   4</c></rc>
   </set>
  </array>
  <array name="atomtypes" >
   <dimension dim="1">type</dimension>
   <field type="int">atomspertype</field>
   <field type="string">element</field>
   <field>mass</field>
   <field>valence</field>
   <field type="string">pseudopotential</field>
   <set>
    <rc><c>  16</c><c>Bi</c><c>    208.98000000</c><c>     15.00000000</c><c>  PAW_PBE Bi_d 06Sep2000                </c></rc>
    <rc><c>   7</c><c>Se</c><c>     78.96000000</c><c>      6.00000000</c><c>  PAW_PBE Se 06Sep2000                  </c></rc>
    <rc><c>  16</c><c>O </c><c>     16.00000000</c><c>      6.00000000</c><c>  PAW_PBE O 08Apr2002                   </c></rc>
    <rc><c>   1</c><c>S </c><c>     32.06600000</c><c>      6.00000000</c><c>  PAW_PBE S 06Sep2000                   </c></rc>
   </set>
  </array>
 </atominfo>
 <structure name="initialpos" >
  <crystal>
   <varray name="basis" >
    <v>       7.56575348       0.00000000       0.00000000 </v>
    <v>       0.00000000       7.56575348       0.00000000 </v>
    <v>       0.00000000       0.00000000      11.93965724 </v>
   </varray>
   <i name="volume">    683.43345184 </i>
   <varray name="rec_basis" >
    <v>       0.13217454       0.00000000       0.00000000 </v>
    <v>       0.00000000       0.13217454       0.00000000 </v>
    <v>       0.00000000       0.00000000       0.08375450 </v>
   </varray>
  </crystal>
  <varray name="positions" >
   <v>       0.24864636       0.24864636       0.85905303 </v>
   <v>       0.75135364       0.24864636       0.85905303 </v>
   <v>       0.24864636       0.75135364       0.85905303 </v>
   <v>       0.75135364       0.75135364       0.85905303 </v>
   <v>       0.00000000       0.00000000       0.64171235 </v>
   <v>       0.50000000       0.00000000       0.64265294 </v>
   <v>       0.00000000       0.50000000       0.64265294 </v>
   <v>       0.50000000       0.50000000       0.64366857 </v>
   <v>       0.00000000       0.00000000       0.35828765 </v>
   <v>       0.50000000       0.00000000       0.35734706 </v>
   <v>       0.00000000       0.50000000       0.35734706 </v>
   <v>       0.50000000       0.50000000       0.35633143 </v>
   <v>       0.24864636       0.24864636       0.14094697 </v>
   <v>       0.75135364       0.24864636       0.14094697 </v>
   <v>       0.24864636       0.75135364       0.14094697 </v>
   <v>       0.75135364       0.75135364       0.14094697 </v>
   <v>       0.50000000       0.00000000       0.00000000 </v>
   <v>       0.00000000       0.50000000       0.00000000 </v>
   <v>       0.50000000       0.50000000       0.00000000 </v>
   <v>       0.25051125       0.25051125       0.50000000 </v>
   <v>       0.74948875       0.25051125       0.50000000 </v>
   <v>       0.25051125       0.74948875       0.50000000 </v>
   <v>       0.74948875       0.74948875       0.50000000 </v>
   <v>       0.00000000       0.24936832       0.75018517 </v>
   <v>       0.50000000       0.24949997       0.75159089 </v>
   <v>       0.00000000       0.75063168       0.75018517 </v>
   <v>       0.50000000       0.75050003       0.75159089 </v>
   <v>       0.24936832       0.00000000       0.75018517 </v>
   <v>       0.75063168       0.00000000       0.75018517 </v>
   <v>       0.24949997       0.50000000       0.75159089 </v>
   <v>       0.75050003       0.50000000       0.75159089 </v>
   <v>       0.24936832       0.00000000       0.24981483 </v>
   <v>       0.75063168       0.00000000       0.24981483 </v>
   <v>       0.24949997       0.50000000       0.24840911 </v>
   <v>       0.75050003       0.50000000       0.24840911 </v>
   <v>       0.00000000       0.24936832       0.24981483 </v>
   <v>       0.50000000       0.24949997       0.24840911 </v>
   <v>       0.00000000       0.75063168       0.24981483 </v>
   <v>       0.50000000       0.75050003       0.24840911 </v>
   <v>       0.00000000       0.00000000       0.00000000 </v>
  </varray>
 </structure>
 <calculation>
  <scstep>
   <time name="dav">   27.16   27.17</time>
   <time name="total">   27.70   27.71</time>
   <energy>
    <i name="alphaZ">   1478.06076683 </i>
    <i name="ewald"> -30943.97336379 </i>
    <i name="hartreedc"> -10492.47107307 </i>
    <i name="XCdc">   1244.69380459 </i>
    <i name="pawpsdc">  34040.00696010 </i>
    <i name="pawaedc"> -33495.80632930 </i>
    <i name="eentropy">     -0.00455473 </i>
    <i name="bandstr">   3747.17138606 </i>
    <i name="atom">  40341.65184589 </i>
    <i name="e_fr_energy">   5919.32944260 </i>
    <i name="e_wo_entrp">   5919.33399733 </i>
    <i name="e_0_energy">   5919.33171997 </i>
   </energy>
  </scstep>
  <scstep>
   <time name="dav">   27.19   27.21</time>
   <time name="total">   27.19   27.21</time>
   <energy>
    <i name="e_fr_energy">   1060.61880526 </i>
    <i name="e_wo_entrp">   1060.62949176 </i>
    <i name="e_0_energy">   1060.62414851 </i>
   </energy>
  </scstep>
  <scstep>
   <time name="dav">   29.32   29.33</time>
   <time name="total">   29.32   29.33</time>
   <energy>
    <i name="e_fr_energy">    -95.73343983 </i>
    <i name="e_wo_entrp">    -95.73343983 </i>
    <i name="e_0_energy">    -95.73343983 </i>
   </energy>
  </scstep>
  <scstep>
   <time name="dav">   31.33   31.34</time>
   <time name="total">   31.33   31.34</time>
   <energy>
    <i name="e_fr_energy">   -233.90181740 </i>
    <i name="e_wo_entrp">   -233.90181740 </i>
    <i name="e_0_energy">   -233.90181740 </i>
   </energy>
  </scstep>
  <scstep>
   <time name="dav">   30.75   30.75</time>
   <time name="total">   31.90   31.91</time>
   <energy>
    <i name="e_fr_energy">   -239.60324150 </i>
    <i name="e_wo_entrp">   -239.60324150 </i>
    <i name="e_0_energy">   -239.60324150 </i>
   </energy>
  </scstep>
  <scstep>
   <time name="dav">   35.08   35.08</time>
   <time name="total">   36.75   36.75</time>
   <energy>
    <i name="e_fr_energy">   -205.85411419 </i>
    <i name="e_wo_entrp">   -205.85411419 </i>
    <i name="e_0_energy">   -205.85411419 </i>
   </energy>
  </scstep>
  <scstep>
   <time name="dav">   28.81   28.83</time>
   <time name="total">   30.54   30.55</time>
   <energy>
    <i name="e_fr_energy">   -206.42978418 </i>
    <i name="e_wo_entrp">   -206.42978418 </i>
    <i name="e_0_energy">   -206.42978418 </i>
   </energy>
  </scstep>
  <scstep>
   <time name="dav">   35.94   35.96</time>
   <time name="total">   37.65   37.68</time>
   <energy>
    <i name="e_fr_energy">   -206.52715252 </i>
    <i name="e_wo_entrp">   -206.52715252 </i>
    <i name="e_0_energy">   -206.52715252 </i>
   </energy>
  </scstep>
  <scstep>
   <time name="dav">   33.40   33.42</time>
   <time name="total">   35.13   35.15</time>
   <energy>
    <i name="e_fr_energy">   -206.43067457 </i>
    <i name="e_wo_entrp">   -206.43067457 </i>
    <i name="e_0_energy">   -206.43067457 </i>
   </energy>
  </scstep>
  <scstep>
   <time name="dav">   32.13   32.13</time>
   <time name="total">   33.83   33.83</time>
   <energy>
    <i name="e_fr_energy">   -206.42750273 </i>
    <i name="e_wo_entrp">   -206.42750273 </i>
    <i name="e_0_energy">   -206.42750273 </i>
   </energy>
  </scstep>
  <scstep>
   <time name="dav">   32.82   32.82</time>
   <time name="total">   34.53   34.53</time>
   <energy>
    <i name="e_fr_energy">   -206.42906973 </i>
    <i name="e_wo_entrp">   -206.42906973 </i>
    <i name="e_0_energy">   -206.42906973 </i>
   </energy>
  </scstep>
  <scstep>
   <time name="dav">   34.58   34.62</time>
   <time name="total">   36.29   36.34</time>
   <energy>
    <i name="e_fr_energy">   -206.42953546 </i>
    <i name="e_wo_entrp">   -206.42953546 </i>
    <i name="e_0_energy">   -206.42953546 </i>
   </energy>
  </scstep>
  <scstep>
   <time name="dav">   30.94   30.97</time>
   <time name="total">   32.64   32.66</time>
   <energy>
    <i name="e_fr_energy">   -206.42939717 </i>
    <i name="e_wo_entrp">   -206.42939717 </i>
    <i name="e_0_energy">   -206.42939717 </i>
   </energy>
  </scstep>
  <scstep>
   <time name="dav">   30.50   30.50</time>
   <time name="total">   32.23   32.23</time>
   <energy>
    <i name="e_fr_energy">   -206.42940349 </i>
    <i name="e_wo_entrp">   -206.42940349 </i>
    <i name="e_0_energy">   -206.42940349 </i>
   </energy>
  </scstep>
  <scstep>
   <time name="dav">   32.94   32.94</time>
   <time name="total">   34.64   34.64</time>
   <energy>
    <i name="e_fr_energy">   -206.42939143 </i>
    <i name="e_wo_entrp">   -206.42939143 </i>
    <i name="e_0_energy">   -206.42939143 </i>
   </energy>
  </scstep>
  <scstep>
   <time name="dav">   30.11   30.11</time>
   <time name="total">   31.77   31.77</time>
   <energy>
    <i name="e_fr_energy">   -206.42938982 </i>
    <i name="e_wo_entrp">   -206.42938982 </i>
    <i name="e_0_energy">   -206.42938982 </i>
   </energy>
  </scstep>
  <scstep>
   <time name="dav">   32.91   32.93</time>
   <time name="total">   34.63   34.65</time>
   <energy>
    <i name="e_fr_energy">   -206.42938994 </i>
    <i name="e_wo_entrp">   -206.42938994 </i>
    <i name="e_0_energy">   -206.42938994 </i>
   </energy>
  </scstep>
  <scstep>
   <time name="dav">   30.12   30.12</time>
   <time name="total">   31.82   31.83</time>
   <energy>
    <i name="e_fr_energy">   -206.42938988 </i>
    <i name="e_wo_entrp">   -206.42938988 </i>
    <i name="e_0_energy">   -206.42938988 </i>
   </energy>
  </scstep>
  <scstep>
   <time name="dav">   30.66   30.66</time>
   <time name="total">   32.38   32.38</time>
   <energy>
    <i name="e_fr_energy">   -206.42938996 </i>
    <i name="e_wo_entrp">   -206.42938996 </i>
    <i name="e_0_energy">   -206.42938996 </i>
   </energy>
  </scstep>
  <scstep>
   <time name="dav">   27.24   27.24</time>
   <time name="total">   28.95   28.95</time>
   <energy>
    <i name="e_fr_energy">   -206.42939008 </i>
    <i name="e_wo_entrp">   -206.42939008 </i>
    <i name="e_0_energy">   -206.42939008 </i>
   </energy>
  </scstep>
  <scstep>
   <time name="dav">   25.88   25.88</time>
   <time name="total">   27.60   27.60</time>
   <energy>
    <i name="e_fr_energy">   -206.42939018 </i>
    <i name="e_wo_entrp">   -206.42939018 </i>
    <i name="e_0_energy">   -206.42939018 </i>
   </energy>
  </scstep>
  <scstep>
   <time name="dav">   19.60   19.60</time>
   <time name="total">   21.32   21.32</time>
   <energy>
    <i name="e_fr_energy">   -206.42939016 </i>
    <i name="e_wo_entrp">   -206.42939016 </i>
    <i name="e_0_energy">   -206.42939016 </i>
   </energy>
  </scstep>
  <scstep>
   <time name="dav">   19.61   19.61</time>
   <time name="total">   21.32   21.32</time>
   <energy>
    <i name="e_fr_energy">   -206.42939013 </i>
    <i name="e_wo_entrp">   -206.42939013 </i>
    <i name="e_0_energy">   -206.42939013 </i>
   </energy>
  </scstep>
  <scstep>
   <time name="dav">   19.56   19.56</time>
   <time name="total">   20.14   20.14</time>
   <energy>
    <i name="alphaZ">   1478.06076683 </i>
    <i name="ewald"> -30943.97336379 </i>
    <i name="hartreedc"> -10674.77940777 </i>
    <i name="XCdc">   1262.50066630 </i>
    <i name="pawpsdc">  37168.32466531 </i>
    <i name="pawaedc"> -36574.08331171 </i>
    <i name="eentropy">     -0.00000000 </i>
    <i name="bandstr">  -2264.13125119 </i>
    <i name="atom">  40341.65184589 </i>
    <i name="e_fr_energy">   -206.42939012 </i>
    <i name="e_wo_entrp">   -206.42939012 </i>
    <i name="e_0_energy">   -206.42939012 </i>
   </energy>
  </scstep>
  <structure>
   <crystal>
    <varray name="basis" >
     <v>       7.56575348       0.00000000       0.00000000 </v>
     <v>       0.00000000       7.56575348       0.00000000 </v>
     <v>       0.00000000       0.00000000      11.93965724 </v>
    </varray>
    <i name="volume">    683.43345184 </i>
    <varray name="rec_basis" >
     <v>       0.13217454       0.00000000       0.00000000 </v>
     <v>       0.00000000       0.13217454       0.00000000 </v>
     <v>       0.00000000       0.00000000       0.08375450 </v>
    </varray>
   </crystal>
   <varray name="positions" >
    <v>       0.24864636       0.24864636       0.85905303 </v>
    <v>       0.75135364       0.24864636       0.85905303 </v>
    <v>       0.24864636       0.75135364       0.85905303 </v>
    <v>       0.75135364       0.75135364       0.85905303 </v>
    <v>       0.00000000       0.00000000       0.64171235 </v>
    <v>       0.50000000       0.00000000       0.64265294 </v>
    <v>       0.00000000       0.50000000       0.64265294 </v>
    <v>       0.50000000       0.50000000       0.64366857 </v>
    <v>       0.00000000       0.00000000       0.35828765 </v>
    <v>       0.50000000       0.00000000       0.35734706 </v>
    <v>       0.00000000       0.50000000       0.35734706 </v>
    <v>       0.50000000       0.50000000       0.35633143 </v>
    <v>       0.24864636       0.24864636       0.14094697 </v>
    <v>       0.75135364       0.24864636       0.14094697 </v>
    <v>       0.24864636       0.75135364       0.14094697 </v>
    <v>       0.75135364       0.75135364       0.14094697 </v>
    <v>       0.50000000       0.00000000       0.00000000 </v>
    <v>       0.00000000       0.50000000       0.00000000 </v>
    <v>       0.50000000       0.50000000       0.00000000 </v>
    <v>       0.25051125       0.25051125       0.50000000 </v>
    <v>       0.74948875       0.25051125       0.50000000 </v>
    <v>       0.25051125       0.74948875       0.50000000 </v>
    <v>       0.74948875       0.74948875       0.50000000 </v>
    <v>       0.00000000       0.24936832       0.75018517 </v>
    <v>       0.50000000       0.24949997       0.75159089 </v>
    <v>       0.00000000       0.75063168       0.75018517 </v>
    <v>       0.50000000       0.75050003       0.75159089 </v>
    <v>       0.24936832       0.00000000       0.75018517 </v>
    <v>       0.75063168       0.00000000       0.75018517 </v>
    <v>       0.24949997       0.50000000       0.75159089 </v>
    <v>       0.75050003       0.50000000       0.75159089 </v>
    <v>       0.24936832       0.00000000       0.24981483 </v>
    <v>       0.75063168       0.00000000       0.24981483 </v>
    <v>       0.24949997       0.50000000       0.24840911 </v>
    <v>       0.75050003       0.50000000       0.24840911 </v>
    <v>       0.00000000       0.24936832       0.24981483 </v>
    <v>       0.50000000       0.24949997       0.24840911 </v>
    <v>       0.00000000       0.75063168       0.24981483 </v>
    <v>       0.50000000       0.75050003       0.24840911 </v>
    <v>       0.00000000       0.00000000       0.00000000 </v>
   </varray>
  </structure>
  <varray name="forces" >
   <v>       0.00010909       0.00010909       0.00005127 </v>
   <v>      -0.00010909       0.00010909       0.00005127 </v>
   <v>       0.00010909      -0.00010909       0.00005127 </v>
   <v>      -0.00010909      -0.00010909       0.00005127 </v>
   <v>      -0.00000000      -0.00000000       0.00039913 </v>
   <v>      -0.00000000      -0.00000000       0.00009500 </v>
   <v>      -0.00000000      -0.00000000       0.00009500 </v>
   <v>      -0.00000000      -0.00000000      -0.00011450 </v>
   <v>      -0.00000000      -0.00000000      -0.00039913 </v>
   <v>      -0.00000000      -0.00000000      -0.00009500 </v>
   <v>      -0.00000000      -0.00000000      -0.00009500 </v>
   <v>      -0.00000000      -0.00000000       0.00011450 </v>
   <v>       0.00010909       0.00010909      -0.00005127 </v>
   <v>      -0.00010909       0.00010909      -0.00005127 </v>
   <v>       0.00010909      -0.00010909      -0.00005127 </v>
   <v>      -0.00010909      -0.00010909      -0.00005127 </v>
   <v>      -0.00000000      -0.00000000      -0.00000000 </v>
   <v>      -0.00000000      -0.00000000      -0.00000000 </v>
   <v>      -0.00000000      -0.00000000       0.00000000 </v>
   <v>       0.00025770       0.00025770       0.00000000 </v>
   <v>      -0.00025770       0.00025770       0.00000000 </v>
   <v>       0.00025770      -0.00025770      -0.00000000 </v>
   <v>      -0.00025770      -0.00025770      -0.00000000 </v>
   <v>      -0.00000000       0.00007180       0.00006438 </v>
   <v>      -0.00000000       0.00007882       0.00033301 </v>
   <v>      -0.00000000      -0.00007180       0.00006438 </v>
   <v>      -0.00000000      -0.00007882       0.00033301 </v>
   <v>       0.00007180      -0.00000000       0.00006438 </v>
   <v>      -0.00007180      -0.00000000       0.00006438 </v>
   <v>       0.00007882      -0.00000000       0.00033301 </v>
   <v>      -0.00007882      -0.00000000       0.00033301 </v>
   <v>       0.00007180      -0.00000000      -0.00006438 </v>
   <v>      -0.00007180      -0.00000000      -0.00006438 </v>
   <v>       0.00007882      -0.00000000      -0.00033301 </v>
   <v>      -0.00007882      -0.00000000      -0.00033301 </v>
   <v>      -0.00000000       0.00007180      -0.00006438 </v>
   <v>      -0.00000000       0.00007882      -0.00033301 </v>
   <v>      -0.00000000      -0.00007180      -0.00006438 </v>
   <v>      -0.00000000      -0.00007882      -0.00033301 </v>
   <v>      -0.00000000      -0.00000000       0.00000000 </v>
  </varray>
  <varray name="stress" >
   <v>     117.20809932       0.00000000       0.00000000 </v>
   <v>       0.00000000     117.20809932       0.00000000 </v>
   <v>      -0.00000000       0.00000000      91.62250691 </v>
  </varray>
  <energy>
   <i name="e_fr_energy">   -206.42939012 </i>
   <i name="e_wo_entrp">   -206.42939012 </i>
   <i name="e_0_energy">   -206.42939012 </i>
  </energy>
  <time name="totalsc">  763.87  764.07</time>
 </calculation>
 <calculation>
  <scstep>
   <time name="dav">   28.22   28.22</time>
   <time name="total">   29.92   29.93</time>
   <energy>
    <i name="alphaZ">   1478.06076683 </i>
    <i name="ewald"> -30943.96111942 </i>
    <i name="hartreedc"> -10674.79087801 </i>
    <i name="XCdc">   1262.50068824 </i>
    <i name="pawpsdc">  37168.32317504 </i>
    <i name="pawaedc"> -36574.08183088 </i>
    <i name="eentropy">     -0.00000000 </i>
    <i name="bandstr">  -2264.13203783 </i>
    <i name="atom">  40341.65184589 </i>
    <i name="e_fr_energy">   -206.42939014 </i>
    <i name="e_wo_entrp">   -206.42939014 </i>
    <i name="e_0_energy">   -206.42939014 </i>
   </energy>
  </scstep>
  <scstep>
   <time name="dav">   33.32   33.33</time>
   <time name="total">   35.03   35.04</time>
   <energy>
    <i name="e_fr_energy">   -206.42939021 </i>
    <i name="e_wo_entrp">   -206.42939021 </i>
    <i name="e_0_energy">   -206.42939021 </i>
   </energy>
  </scstep>
  <scstep>
   <time name="dav">   21.18   21.18</time>
   <time name="total">   22.88   22.88</time>
   <energy>
    <i name="e_fr_energy">   -206.42939021 </i>
    <i name="e_wo_entrp">   -206.42939021 </i>
    <i name="e_0_energy">   -206.42939021 </i>
   </energy>
  </scstep>
  <scstep>
   <time name="dav">   19.56   19.57</time>
   <time name="total">   21.26   21.27</time>
   <energy>
    <i name="e_fr_energy">   -206.42939021 </i>
    <i name="e_wo_entrp">   -206.42939021 </i>
    <i name="e_0_energy">   -206.42939021 </i>
   </energy>
  </scstep>
  <scstep>
   <time name="dav">   19.35   19.35</time>
   <time name="total">   19.88   19.88</time>
   <energy>
    <i name="alphaZ">   1478.06076683 </i>
    <i name="ewald"> -30943.96111942 </i>
    <i name="hartreedc"> -10674.79101610 </i>
    <i name="XCdc">   1262.50071998 </i>
    <i name="pawpsdc">  37168.32840478 </i>
    <i name="pawaedc"> -36574.08708975 </i>
    <i name="eentropy">     -0.00000000 </i>
    <i name="bandstr">  -2264.13190243 </i>
    <i name="atom">  40341.65184589 </i>
    <i name="e_fr_energy">   -206.42939021 </i>
    <i name="e_wo_entrp">   -206.42939021 </i>
    <i name="e_0_energy">   -206.42939021 </i>
   </energy>
  </scstep>
  <structure>
   <crystal>
    <varray name="basis" >
     <v>       7.56575348       0.00000000       0.00000000 </v>
     <v>       0.00000000       7.56575348       0.00000000 </v>
     <v>       0.00000000       0.00000000      11.93965724 </v>
    </varray>
    <i name="volume">    683.43345184 </i>
    <varray name="rec_basis" >
     <v>       0.13217454       0.00000000       0.00000000 </v>
     <v>       0.00000000       0.13217454       0.00000000 </v>
     <v>       0.00000000       0.00000000       0.08375450 </v>
    </varray>
   </crystal>
   <varray name="positions" >
    <v>       0.24864706       0.24864706       0.85905323 </v>
    <v>       0.75135294       0.24864706       0.85905323 </v>
    <v>       0.24864706       0.75135294       0.85905323 </v>
    <v>       0.75135294       0.75135294       0.85905323 </v>
    <v>       1.00000000       1.00000000       0.64171396 </v>
    <v>       0.50000000       1.00000000       0.64265332 </v>
    <v>       1.00000000       0.50000000       0.64265332 </v>
    <v>       0.50000000       0.50000000       0.64366811 </v>
    <v>       1.00000000       1.00000000       0.35828604 </v>
    <v>       0.50000000       1.00000000       0.35734668 </v>
    <v>       1.00000000       0.50000000       0.35734668 </v>
    <v>       0.50000000       0.50000000       0.35633189 </v>
    <v>       0.24864706       0.24864706       0.14094677 </v>
    <v>       0.75135294       0.24864706       0.14094677 </v>
    <v>       0.24864706       0.75135294       0.14094677 </v>
    <v>       0.75135294       0.75135294       0.14094677 </v>
    <v>       0.50000000       1.00000000       1.00000000 </v>
    <v>       1.00000000       0.50000000       1.00000000 </v>
    <v>       0.50000000       0.50000000       0.00000000 </v>
    <v>       0.25051289       0.25051289       0.50000000 </v>
    <v>       0.74948711       0.25051289       0.50000000 </v>
    <v>       0.25051289       0.74948711       0.50000000 </v>
    <v>       0.74948711       0.74948711       0.50000000 </v>
    <v>       1.00000000       0.24936878       0.75018543 </v>
    <v>       0.50000000       0.24950047       0.75159224 </v>
    <v>       1.00000000       0.75063122       0.75018543 </v>
    <v>       0.50000000       0.75049953       0.75159224 </v>
    <v>       0.24936878       1.00000000       0.75018543 </v>
    <v>       0.75063122       1.00000000       0.75018543 </v>
    <v>       0.24950047       0.50000000       0.75159224 </v>
    <v>       0.75049953       0.50000000       0.75159224 </v>
    <v>       0.24936878       1.00000000       0.24981457 </v>
    <v>       0.75063122       1.00000000       0.24981457 </v>
    <v>       0.24950047       0.50000000       0.24840776 </v>
    <v>       0.75049953       0.50000000       0.24840776 </v>
    <v>       1.00000000       0.24936878       0.24981457 </v>
    <v>       0.50000000       0.24950047       0.24840776 </v>
    <v>       1.00000000       0.75063122       0.24981457 </v>
    <v>       0.50000000       0.75049953       0.24840776 </v>
    <v>       1.00000000       1.00000000       0.00000000 </v>
   </varray>
  </structure>
  <varray name="forces" >
   <v>       0.00002552       0.00002552       0.00014522 </v>
   <v>      -0.00002552       0.00002552       0.00014522 </v>
   <v>       0.00002552      -0.00002552       0.00014522 </v>
   <v>      -0.00002552      -0.00002552       0.00014522 </v>
   <v>       0.00000000      -0.00000000       0.00019443 </v>
   <v>       0.00000000      -0.00000000       0.00010647 </v>
   <v>       0.00000000      -0.00000000       0.00010647 </v>
   <v>       0.00000000      -0.00000000       0.00002926 </v>
   <v>       0.00000000      -0.00000000      -0.00019443 </v>
   <v>       0.00000000      -0.00000000      -0.00010647 </v>
   <v>       0.00000000      -0.00000000      -0.00010647 </v>
   <v>       0.00000000      -0.00000000      -0.00002926 </v>
   <v>       0.00002552       0.00002552      -0.00014522 </v>
   <v>      -0.00002552       0.00002552      -0.00014522 </v>
   <v>       0.00002552      -0.00002552      -0.00014522 </v>
   <v>      -0.00002552      -0.00002552      -0.00014522 </v>
   <v>       0.00000000      -0.00000000       0.00000000 </v>
   <v>       0.00000000      -0.00000000       0.00000000 </v>
   <v>       0.00000000      -0.00000000       0.00000000 </v>
   <v>       0.00020119       0.00020119       0.00000000 </v>
   <v>      -0.00020119       0.00020119       0.00000000 </v>
   <v>       0.00020119      -0.00020119       0.00000000 </v>
   <v>      -0.00020119      -0.00020119       0.00000000 </v>
   <v>       0.00000000       0.00003817       0.00004103 </v>
   <v>       0.00000000       0.00003217       0.00019310 </v>
   <v>       0.00000000      -0.00003817       0.00004103 </v>
   <v>       0.00000000      -0.00003217       0.00019310 </v>
   <v>       0.00003817      -0.00000000       0.00004103 </v>
   <v>      -0.00003817      -0.00000000       0.00004103 </v>
   <v>       0.00003217      -0.00000000       0.00019310 </v>
   <v>      -0.00003217      -0.00000000       0.00019310 </v>
   <v>       0.00003817      -0.00000000      -0.00004103 </v>
   <v>      -0.00003817      -0.00000000      -0.00004103 </v>
   <v>       0.00003217      -0.00000000      -0.00019310 </v>
   <v>      -0.00003217      -0.00000000      -0.00019310 </v>
   <v>       0.00000000       0.00003817      -0.00004103 </v>
   <v>       0.00000000       0.00003217      -0.00019310 </v>
   <v>       0.00000000      -0.00003817      -0.00004103 </v>
   <v>       0.00000000      -0.00003217      -0.00019310 </v>
   <v>       0.00000000      -0.00000000       0.00000000 </v>
  </varray>
  <varray name="stress" >
   <v>     117.20944554       0.00000000       0.00000000 </v>
   <v>       0.00000000     117.20944554       0.00000000 </v>
   <v>       0.00000000       0.00000000      91.62434967 </v>
  </varray>
  <energy>
   <i name="e_fr_energy">   -206.42939021 </i>
   <i name="e_wo_entrp">   -206.42939021 </i>
   <i name="e_0_energy">   -206.42939021 </i>
  </energy>
  <time name="totalsc">  151.18  151.22</time>
 </calculation>
 <calculation>
  <scstep>
   <time name="dav">   27.87   27.87</time>
   <time name="total">   29.55   29.55</time>
   <energy>
    <i name="alphaZ">   1478.06076683 </i>
    <i name="ewald"> -30943.94257948 </i>
    <i name="hartreedc"> -10674.80860480 </i>
    <i name="XCdc">   1262.50077044 </i>
    <i name="pawpsdc">  37168.32809954 </i>
    <i name="pawaedc"> -36574.08678689 </i>
    <i name="eentropy">     -0.00000000 </i>
    <i name="bandstr">  -2264.13290164 </i>
    <i name="atom">  40341.65184589 </i>
    <i name="e_fr_energy">   -206.42939010 </i>
    <i name="e_wo_entrp">   -206.42939010 </i>
    <i name="e_0_energy">   -206.42939010 </i>
   </energy>
  </scstep>
  <scstep>
   <time name="dav">   33.44   33.44</time>
   <time name="total">   35.15   35.16</time>
   <energy>
    <i name="e_fr_energy">   -206.42939027 </i>
    <i name="e_wo_entrp">   -206.42939027 </i>
    <i name="e_0_energy">   -206.42939027 </i>
   </energy>
  </scstep>
  <scstep>
   <time name="dav">   27.73   27.73</time>
   <time name="total">   29.41   29.41</time>
   <energy>
    <i name="e_fr_energy">   -206.42939027 </i>
    <i name="e_wo_entrp">   -206.42939027 </i>
    <i name="e_0_energy">   -206.42939027 </i>
   </energy>
  </scstep>
  <scstep>
   <time name="dav">   19.96   19.96</time>
   <time name="total">   21.64   21.64</time>
   <energy>
    <i name="e_fr_energy">   -206.42939027 </i>
    <i name="e_wo_entrp">   -206.42939027 </i>
    <i name="e_0_energy">   -206.42939027 </i>
   </energy>
  </scstep>
  <scstep>
   <time name="dav">   19.55   19.55</time>
   <time name="total">   20.08   20.08</time>
   <energy>
    <i name="alphaZ">   1478.06076683 </i>
    <i name="ewald"> -30943.94257948 </i>
    <i name="hartreedc"> -10674.80880882 </i>
    <i name="XCdc">   1262.50081125 </i>
    <i name="pawpsdc">  37168.33601252 </i>
    <i name="pawaedc"> -36574.09476829 </i>
    <i name="eentropy">     -0.00000000 </i>
    <i name="bandstr">  -2264.13267017 </i>
    <i name="atom">  40341.65184589 </i>
    <i name="e_fr_energy">   -206.42939026 </i>
    <i name="e_wo_entrp">   -206.42939026 </i>
    <i name="e_0_energy">   -206.42939026 </i>
   </energy>
  </scstep>
  <structure>
   <crystal>
    <varray name="basis" >
     <v>       7.56575348       0.00000000       0.00000000 </v>
     <v>       0.00000000       7.56575348       0.00000000 </v>
     <v>       0.00000000       0.00000000      11.93965724 </v>
    </varray>
    <i name="volume">    683.43345184 </i>
    <varray name="rec_basis" >
     <v>       0.13217454       0.00000000       0.00000000 </v>
     <v>       0.00000000       0.13217454       0.00000000 </v>
     <v>       0.00000000       0.00000000       0.08375450 </v>
    </varray>
   </crystal>
   <varray name="positions" >
    <v>       0.24864811       0.24864811       0.85905355 </v>
    <v>       0.75135189       0.24864811       0.85905355 </v>
    <v>       0.24864811       0.75135189       0.85905355 </v>
    <v>       0.75135189       0.75135189       0.85905355 </v>
    <v>       0.00000000       0.00000000       0.64171640 </v>
    <v>       0.50000000       0.00000000       0.64265390 </v>
    <v>       0.00000000       0.50000000       0.64265390 </v>
    <v>       0.50000000       0.50000000       0.64366741 </v>
    <v>       0.00000000       0.00000000       0.35828360 </v>
    <v>       0.50000000       0.00000000       0.35734610 </v>
    <v>       0.00000000       0.50000000       0.35734610 </v>
    <v>       0.50000000       0.50000000       0.35633259 </v>
    <v>       0.24864811       0.24864811       0.14094645 </v>
    <v>       0.75135189       0.24864811       0.14094645 </v>
    <v>       0.24864811       0.75135189       0.14094645 </v>
    <v>       0.75135189       0.75135189       0.14094645 </v>
    <v>       0.50000000       0.00000000       0.00000000 </v>
    <v>       0.00000000       0.50000000       0.00000000 </v>
    <v>       0.50000000       0.50000000       0.00000000 </v>
    <v>       0.25051538       0.25051538       0.50000000 </v>
    <v>       0.74948462       0.25051538       0.50000000 </v>
    <v>       0.25051538       0.74948462       0.50000000 </v>
    <v>       0.74948462       0.74948462       0.50000000 </v>
    <v>       0.00000000       0.24936947       0.75018583 </v>
    <v>       0.50000000       0.24950123       0.75159428 </v>
    <v>       0.00000000       0.75063053       0.75018583 </v>
    <v>       0.50000000       0.75049877       0.75159428 </v>
    <v>       0.24936947       0.00000000       0.75018583 </v>
    <v>       0.75063053       0.00000000       0.75018583 </v>
    <v>       0.24950123       0.50000000       0.75159428 </v>
    <v>       0.75049877       0.50000000       0.75159428 </v>
    <v>       0.24936947       0.00000000       0.24981417 </v>
    <v>       0.75063053       0.00000000       0.24981417 </v>
    <v>       0.24950123       0.50000000       0.24840572 </v>
    <v>       0.75049877       0.50000000       0.24840572 </v>
    <v>       0.00000000       0.24936947       0.24981417 </v>
    <v>       0.50000000       0.24950123       0.24840572 </v>
    <v>       0.00000000       0.75063053       0.24981417 </v>
    <v>       0.50000000       0.75049877       0.24840572 </v>
    <v>       0.00000000       0.00000000       0.00000000 </v>
   </varray>
  </structure>
  <varray name="forces" >
   <v>      -0.00006476      -0.00006476       0.00029336 </v>
   <v>       0.00006476      -0.00006476       0.00029336 </v>
   <v>      -0.00006476       0.00006476       0.00029336 </v>
   <v>       0.00006476       0.00006476       0.00029336 </v>
   <v>       0.00000000       0.00000000       0.00003134 </v>
   <v>       0.00000000       0.00000000       0.00016251 </v>
   <v>      -0.00000000       0.00000000       0.00016251 </v>
   <v>       0.00000000       0.00000000       0.00021846 </v>
   <v>      -0.00000000       0.00000000      -0.00003134 </v>
   <v>      -0.00000000       0.00000000      -0.00016251 </v>
   <v>       0.00000000       0.00000000      -0.00016251 </v>
   <v>       0.00000000       0.00000000      -0.00021846 </v>
   <v>      -0.00006476      -0.00006476      -0.00029336 </v>
   <v>       0.00006476      -0.00006476      -0.00029336 </v>
   <v>      -0.00006476       0.00006476      -0.00029336 </v>
   <v>       0.00006476       0.00006476      -0.00029336 </v>
   <v>       0.00000000       0.00000000      -0.00000000 </v>
   <v>      -0.00000000       0.00000000      -0.00000000 </v>
   <v>       0.00000000       0.00000000      -0.00000000 </v>
   <v>       0.00010120       0.00010120      -0.00000000 </v>
   <v>      -0.00010120       0.00010120      -0.00000000 </v>
   <v>       0.00010120      -0.00010120      -0.00000000 </v>
   <v>      -0.00010120      -0.00010120      -0.00000000 </v>
   <v>       0.00000000      -0.00001886      -0.00000831 </v>
   <v>      -0.00000000      -0.00004571      -0.00005153 </v>
   <v>      -0.00000000       0.00001886      -0.00000831 </v>
   <v>      -0.00000000       0.00004571      -0.00005153 </v>
   <v>      -0.00001886       0.00000000      -0.00000831 </v>
   <v>       0.00001886       0.00000000      -0.00000831 </v>
   <v>      -0.00004571       0.00000000      -0.00005153 </v>
   <v>       0.00004571       0.00000000      -0.00005153 </v>
   <v>      -0.00001886       0.00000000       0.00000831 </v>
   <v>       0.00001886       0.00000000       0.00000831 </v>
   <v>      -0.00004571       0.00000000       0.00005153 </v>
   <v>       0.00004571       0.00000000       0.00005153 </v>
   <v>       0.00000000      -0.00001886       0.00000831 </v>
   <v>       0.00000000      -0.00004571       0.00005153 </v>
   <v>       0.00000000       0.00001886       0.00000831 </v>
   <v>       0.00000000       0.00004571       0.00005153 </v>
   <v>      -0.00000000       0.00000000      -0.00000000 </v>
  </varray>
  <varray name="stress" >
   <v>     117.21038273       0.00000000       0.00000000 </v>
   <v>       0.00000000     117.21038273       0.00000000 </v>
   <v>       0.00000000       0.00000000      91.62567606 </v>
  </varray>
  <energy>
   <i name="e_fr_energy">   -206.42939026 </i>
   <i name="e_wo_entrp">   -206.42939026 </i>
   <i name="e_0_energy">   -206.42939026 </i>
  </energy>
  <time name="totalsc">  158.19  158.20</time>
 </calculation>
 <calculation>
  <scstep>
   <time name="dav">   29.28   29.28</time>
   <time name="total">   30.98   30.98</time>
   <energy>
    <i name="alphaZ">   1478.06076683 </i>
    <i name="ewald"> -30943.96471960 </i>
    <i name="hartreedc"> -10674.78812196 </i>
    <i name="XCdc">   1262.50073112 </i>
    <i name="pawpsdc">  37168.33527699 </i>
    <i name="pawaedc"> -36574.09403430 </i>
    <i name="eentropy">     -0.00000000 </i>
    <i name="bandstr">  -2264.13113520 </i>
    <i name="atom">  40341.65184589 </i>
    <i name="e_fr_energy">   -206.42939022 </i>
    <i name="e_wo_entrp">   -206.42939022 </i>
    <i name="e_0_energy">   -206.42939022 </i>
   </energy>
  </scstep>
  <scstep>
   <time name="dav">   34.02   34.01</time>
   <time name="total">   35.69   35.69</time>
   <energy>
    <i name="e_fr_energy">   -206.42939029 </i>
    <i name="e_wo_entrp">   -206.42939029 </i>
    <i name="e_0_energy">   -206.42939029 </i>
   </energy>
  </scstep>
  <scstep>
   <time name="dav">   26.04   26.04</time>
   <time name="total">   27.72   27.72</time>
   <energy>
    <i name="e_fr_energy">   -206.42939029 </i>
    <i name="e_wo_entrp">   -206.42939029 </i>
    <i name="e_0_energy">   -206.42939029 </i>
   </energy>
  </scstep>
  <scstep>
   <time name="dav">   19.40   19.41</time>
   <time name="total">   21.10   21.11</time>
   <energy>
    <i name="e_fr_energy">   -206.42939029 </i>
    <i name="e_wo_entrp">   -206.42939029 </i>
    <i name="e_0_energy">   -206.42939029 </i>
   </energy>
  </scstep>
  <scstep>
   <time name="dav">   19.05   19.06</time>
   <time name="total">   19.62   19.63</time>
   <energy>
    <i name="alphaZ">   1478.06076683 </i>
    <i name="ewald"> -30943.96471960 </i>
    <i name="hartreedc"> -10674.78783148 </i>
    <i name="XCdc">   1262.50067207 </i>
    <i name="pawpsdc">  37168.32471719 </i>
    <i name="pawaedc"> -36574.08336981 </i>
    <i name="eentropy">     -0.00000000 </i>
    <i name="bandstr">  -2264.13147140 </i>
    <i name="atom">  40341.65184589 </i>
    <i name="e_fr_energy">   -206.42939029 </i>
    <i name="e_wo_entrp">   -206.42939029 </i>
    <i name="e_0_energy">   -206.42939029 </i>
   </energy>
  </scstep>
  <structure>
   <crystal>
    <varray name="basis" >
     <v>       7.56575348       0.00000000       0.00000000 </v>
     <v>       0.00000000       7.56575348       0.00000000 </v>
     <v>       0.00000000       0.00000000      11.93965724 </v>
    </varray>
    <i name="volume">    683.43345184 </i>
    <varray name="rec_basis" >
     <v>       0.13217454       0.00000000       0.00000000 </v>
     <v>       0.00000000       0.13217454       0.00000000 </v>
     <v>       0.00000000       0.00000000       0.08375450 </v>
    </varray>
   </crystal>
   <varray name="positions" >
    <v>       0.24864800       0.24864800       0.85905522 </v>
    <v>       0.75135200       0.24864800       0.85905522 </v>
    <v>       0.24864800       0.75135200       0.85905522 </v>
    <v>       0.75135200       0.75135200       0.85905522 </v>
    <v>       1.00000000       1.00000000       0.64171756 </v>
    <v>       0.50000000       1.00000000       0.64265500 </v>
    <v>       1.00000000       0.50000000       0.64265500 </v>
    <v>       0.50000000       0.50000000       0.64366827 </v>
    <v>       1.00000000       1.00000000       0.35828244 </v>
    <v>       0.50000000       1.00000000       0.35734500 </v>
    <v>       1.00000000       0.50000000       0.35734500 </v>
    <v>       0.50000000       0.50000000       0.35633173 </v>
    <v>       0.24864800       0.24864800       0.14094478 </v>
    <v>       0.75135200       0.24864800       0.14094478 </v>
    <v>       0.24864800       0.75135200       0.14094478 </v>
    <v>       0.75135200       0.75135200       0.14094478 </v>
    <v>       0.50000000       1.00000000       1.00000000 </v>
    <v>       1.00000000       0.50000000       1.00000000 </v>
    <v>       0.50000000       0.50000000       1.00000000 </v>
    <v>       0.25051723       0.25051723       0.50000000 </v>
    <v>       0.74948277       0.25051723       0.50000000 </v>
    <v>       0.25051723       0.74948277       0.50000000 </v>
    <v>       0.74948277       0.74948277       0.50000000 </v>
    <v>       1.00000000       0.24936960       0.75018594 </v>
    <v>       0.50000000       0.24950116       0.75159483 </v>
    <v>       1.00000000       0.75063040       0.75018594 </v>
    <v>       0.50000000       0.75049884       0.75159483 </v>
    <v>       0.24936960       1.00000000       0.75018594 </v>
    <v>       0.75063040       1.00000000       0.75018594 </v>
    <v>       0.24950116       0.50000000       0.75159483 </v>
    <v>       0.75049884       0.50000000       0.75159483 </v>
    <v>       0.24936960       1.00000000       0.24981406 </v>
    <v>       0.75063040       1.00000000       0.24981406 </v>
    <v>       0.24950116       0.50000000       0.24840517 </v>
    <v>       0.75049884       0.50000000       0.24840517 </v>
    <v>       1.00000000       0.24936960       0.24981406 </v>
    <v>       0.50000000       0.24950116       0.24840517 </v>
    <v>       1.00000000       0.75063040       0.24981406 </v>
    <v>       0.50000000       0.75049884       0.24840517 </v>
    <v>       1.00000000       1.00000000       1.00000000 </v>
   </varray>
  </structure>
  <varray name="forces" >
   <v>      -0.00002253      -0.00002253      -0.00011585 </v>
   <v>       0.00002253      -0.00002253      -0.00011585 </v>
   <v>      -0.00002253       0.00002253      -0.00011585 </v>
   <v>       0.00002253       0.00002253      -0.00011585 </v>
   <v>      -0.00000000       0.00000000      -0.00015950 </v>
   <v>      -0.00000000       0.00000000      -0.00004089 </v>
   <v>      -0.00000000       0.00000000      -0.00004089 </v>
   <v>      -0.00000000       0.00000000       0.00005158 </v>
   <v>       0.00000000       0.00000000       0.00015950 </v>
   <v>       0.00000000       0.00000000       0.00004089 </v>
   <v>       0.00000000       0.00000000       0.00004089 </v>
   <v>      -0.00000000       0.00000000      -0.00005158 </v>
   <v>      -0.00002253      -0.00002253       0.00011585 </v>
   <v>       0.00002253      -0.00002253       0.00011585 </v>
   <v>      -0.00002253       0.00002253       0.00011585 </v>
   <v>       0.00002253       0.00002253       0.00011585 </v>
   <v>       0.00000000       0.00000000      -0.00000000 </v>
   <v>      -0.00000000       0.00000000      -0.00000000 </v>
   <v>      -0.00000000       0.00000000      -0.00000000 </v>
   <v>       0.00001468       0.00001468      -0.00000000 </v>
   <v>      -0.00001468       0.00001468      -0.00000000 </v>
   <v>       0.00001468      -0.00001468      -0.00000000 </v>
   <v>      -0.00001468      -0.00001468      -0.00000000 </v>
   <v>      -0.00000000      -0.00005669       0.00015802 </v>
   <v>       0.00000000      -0.00005970       0.00013803 </v>
   <v>      -0.00000000       0.00005669       0.00015802 </v>
   <v>      -0.00000000       0.00005970       0.00013803 </v>
   <v>      -0.00005669       0.00000000       0.00015802 </v>
   <v>       0.00005669       0.00000000       0.00015802 </v>
   <v>      -0.00005970       0.00000000       0.00013803 </v>
   <v>       0.00005970       0.00000000       0.00013803 </v>
   <v>      -0.00005669       0.00000000      -0.00015802 </v>
   <v>       0.00005669       0.00000000      -0.00015802 </v>
   <v>      -0.00005970       0.00000000      -0.00013803 </v>
   <v>       0.00005970       0.00000000      -0.00013803 </v>
   <v>      -0.00000000      -0.00005669      -0.00015802 </v>
   <v>       0.00000000      -0.00005970      -0.00013803 </v>
   <v>       0.00000000       0.00005669      -0.00015802 </v>
   <v>       0.00000000       0.00005970      -0.00013803 </v>
   <v>       0.00000000       0.00000000      -0.00000000 </v>
  </varray>
  <varray name="stress" >
   <v>     117.20855685       0.00000000      -0.00000000 </v>
   <v>       0.00000000     117.20855685       0.00000000 </v>
   <v>       0.00000000       0.00000000      91.62359004 </v>
  </varray>
  <energy>
   <i name="e_fr_energy">   -206.42939029 </i>
   <i name="e_wo_entrp">   -206.42939029 </i>
   <i name="e_0_energy">   -206.42939029 </i>
  </energy>
  <time name="totalsc">  157.48  157.49</time>
 </calculation>
 <calculation>
  <scstep>
   <time name="dav">   28.87   28.87</time>
   <time name="total">   30.59   30.59</time>
   <energy>
    <i name="alphaZ">   1478.06076683 </i>
    <i name="ewald"> -30943.96123576 </i>
    <i name="hartreedc"> -10674.79099565 </i>
    <i name="XCdc">   1262.50067749 </i>
    <i name="pawpsdc">  37168.32338088 </i>
    <i name="pawaedc"> -36574.08203190 </i>
    <i name="eentropy">     -0.00000000 </i>
    <i name="bandstr">  -2264.13179807 </i>
    <i name="atom">  40341.65184589 </i>
    <i name="e_fr_energy">   -206.42939029 </i>
    <i name="e_wo_entrp">   -206.42939029 </i>
    <i name="e_0_energy">   -206.42939029 </i>
   </energy>
  </scstep>
  <scstep>
   <time name="dav">   20.35   20.34</time>
   <time name="total">   22.04   22.05</time>
   <energy>
    <i name="e_fr_energy">   -206.42939029 </i>
    <i name="e_wo_entrp">   -206.42939029 </i>
    <i name="e_0_energy">   -206.42939029 </i>
   </energy>
  </scstep>
  <scstep>
   <time name="dav">   18.69   18.69</time>
   <time name="total">   20.43   20.43</time>
   <energy>
    <i name="e_fr_energy">   -206.42939029 </i>
    <i name="e_wo_entrp">   -206.42939029 </i>
    <i name="e_0_energy">   -206.42939029 </i>
   </energy>
  </scstep>
  <scstep>
   <time name="dav">   18.68   18.69</time>
   <time name="total">   20.38   20.39</time>
   <energy>
    <i name="e_fr_energy">   -206.42939029 </i>
    <i name="e_wo_entrp">   -206.42939029 </i>
    <i name="e_0_energy">   -206.42939029 </i>
   </energy>
  </scstep>
  <scstep>
   <time name="dav">   18.71   18.71</time>
   <time name="total">   19.26   19.27</time>
   <energy>
    <i name="alphaZ">   1478.06076683 </i>
    <i name="ewald"> -30943.96123576 </i>
    <i name="hartreedc"> -10674.79105428 </i>
    <i name="XCdc">   1262.50068861 </i>
    <i name="pawpsdc">  37168.32583927 </i>
    <i name="pawaedc"> -36574.08451157 </i>
    <i name="eentropy">     -0.00000000 </i>
    <i name="bandstr">  -2264.13172929 </i>
    <i name="atom">  40341.65184589 </i>
    <i name="e_fr_energy">   -206.42939029 </i>
    <i name="e_wo_entrp">   -206.42939029 </i>
    <i name="e_0_energy">   -206.42939029 </i>
   </energy>
  </scstep>
  <structure>
   <crystal>
    <varray name="basis" >
     <v>       7.56575348       0.00000000       0.00000000 </v>
     <v>       0.00000000       7.56575348       0.00000000 </v>
     <v>       0.00000000       0.00000000      11.93965724 </v>
    </varray>
    <i name="volume">    683.43345184 </i>
    <varray name="rec_basis" >
     <v>       0.13217454       0.00000000       0.00000000 </v>
     <v>       0.00000000       0.13217454       0.00000000 </v>
     <v>       0.00000000       0.00000000       0.08375450 </v>
    </varray>
   </crystal>
   <varray name="positions" >
    <v>       0.24864802       0.24864802       0.85905496 </v>
    <v>       0.75135198       0.24864802       0.85905496 </v>
    <v>       0.24864802       0.75135198       0.85905496 </v>
    <v>       0.75135198       0.75135198       0.85905496 </v>
    <v>       0.00000000       0.00000000       0.64171738 </v>
    <v>       0.50000000       0.00000000       0.64265483 </v>
    <v>       0.00000000       0.50000000       0.64265483 </v>
    <v>       0.50000000       0.50000000       0.64366813 </v>
    <v>       0.00000000       0.00000000       0.35828262 </v>
    <v>       0.50000000       0.00000000       0.35734517 </v>
    <v>       0.00000000       0.50000000       0.35734517 </v>
    <v>       0.50000000       0.50000000       0.35633187 </v>
    <v>       0.24864802       0.24864802       0.14094504 </v>
    <v>       0.75135198       0.24864802       0.14094504 </v>
    <v>       0.24864802       0.75135198       0.14094504 </v>
    <v>       0.75135198       0.75135198       0.14094504 </v>
    <v>       0.50000000       0.00000000       0.00000000 </v>
    <v>       0.00000000       0.50000000       0.00000000 </v>
    <v>       0.50000000       0.50000000       0.00000000 </v>
    <v>       0.25051694       0.25051694       0.50000000 </v>
    <v>       0.74948306       0.25051694       0.50000000 </v>
    <v>       0.25051694       0.74948306       0.50000000 </v>
    <v>       0.74948306       0.74948306       0.50000000 </v>
    <v>       0.00000000       0.24936958       0.75018592 </v>
    <v>       0.50000000       0.24950117       0.75159475 </v>
    <v>       0.00000000       0.75063042       0.75018592 </v>
    <v>       0.50000000       0.75049883       0.75159475 </v>
    <v>       0.24936958       0.00000000       0.75018592 </v>
    <v>       0.75063042       0.00000000       0.75018592 </v>
    <v>       0.24950117       0.50000000       0.75159475 </v>
    <v>       0.75049883       0.50000000       0.75159475 </v>
    <v>       0.24936958       0.00000000       0.24981408 </v>
    <v>       0.75063042       0.00000000       0.24981408 </v>
    <v>       0.24950117       0.50000000       0.24840525 </v>
    <v>       0.75049883       0.50000000       0.24840525 </v>
    <v>       0.00000000       0.24936958       0.24981408 </v>
    <v>       0.50000000       0.24950117       0.24840525 </v>
    <v>       0.00000000       0.75063042       0.24981408 </v>
    <v>       0.50000000       0.75049883       0.24840525 </v>
    <v>       0.00000000       0.00000000       0.00000000 </v>
   </varray>
  </structure>
  <varray name="forces" >
   <v>      -0.00003209      -0.00003209       0.00003643 </v>
   <v>       0.00003209      -0.00003209       0.00003643 </v>
   <v>      -0.00003209       0.00003209       0.00003643 </v>
   <v>       0.00003209       0.00003209       0.00003643 </v>
   <v>       0.00000000       0.00000000      -0.00005695 </v>
   <v>       0.00000000       0.00000000       0.00004859 </v>
   <v>      -0.00000000       0.00000000       0.00004859 </v>
   <v>       0.00000000      -0.00000000       0.00011968 </v>
   <v>       0.00000000       0.00000000       0.00005695 </v>
   <v>      -0.00000000      -0.00000000      -0.00004859 </v>
   <v>       0.00000000       0.00000000      -0.00004859 </v>
   <v>      -0.00000000      -0.00000000      -0.00011968 </v>
   <v>      -0.00003209      -0.00003209      -0.00003643 </v>
   <v>       0.00003209      -0.00003209      -0.00003643 </v>
   <v>      -0.00003209       0.00003209      -0.00003643 </v>
   <v>       0.00003209       0.00003209      -0.00003643 </v>
   <v>       0.00000000      -0.00000000      -0.00000000 </v>
   <v>      -0.00000000       0.00000000      -0.00000000 </v>
   <v>       0.00000000       0.00000000      -0.00000000 </v>
   <v>       0.00001978       0.00001978      -0.00000000 </v>
   <v>      -0.00001978       0.00001978      -0.00000000 </v>
   <v>       0.00001978      -0.00001978      -0.00000000 </v>
   <v>      -0.00001978      -0.00001978      -0.00000000 </v>
   <v>       0.00000000      -0.00005545       0.00014207 </v>
   <v>      -0.00000000      -0.00005913       0.00011252 </v>
   <v>       0.00000000       0.00005545       0.00014207 </v>
   <v>       0.00000000       0.00005913       0.00011252 </v>
   <v>      -0.00005545       0.00000000       0.00014207 </v>
   <v>       0.00005545      -0.00000000       0.00014207 </v>
   <v>      -0.00005913       0.00000000       0.00011252 </v>
   <v>       0.00005913      -0.00000000       0.00011252 </v>
   <v>      -0.00005545      -0.00000000      -0.00014207 </v>
   <v>       0.00005545       0.00000000      -0.00014207 </v>
   <v>      -0.00005913      -0.00000000      -0.00011252 </v>
   <v>       0.00005913      -0.00000000      -0.00011252 </v>
   <v>       0.00000000      -0.00005545      -0.00014207 </v>
   <v>      -0.00000000      -0.00005913      -0.00011252 </v>
   <v>       0.00000000       0.00005545      -0.00014207 </v>
   <v>       0.00000000       0.00005913      -0.00011252 </v>
   <v>       0.00000000       0.00000000      -0.00000000 </v>
  </varray>
  <varray name="stress" >
   <v>     117.20901329       0.00000000      -0.00000000 </v>
   <v>       0.00000000     117.20901329       0.00000000 </v>
   <v>      -0.00000000       0.00000000      91.62416004 </v>
  </varray>
  <energy>
   <i name="e_fr_energy">   -206.42939029 </i>
   <i name="e_wo_entrp">   -206.42939029 </i>
   <i name="e_0_energy">   -206.42939029 </i>
  </energy>
  <time name="totalsc">  135.04  135.05</time>
 </calculation>
 <calculation>
  <scstep>
   <time name="dav">   27.57   27.57</time>
   <time name="total">   29.30   29.30</time>
   <energy>
    <i name="alphaZ">   1478.06076683 </i>
    <i name="ewald"> -30943.96331137 </i>
    <i name="hartreedc"> -10674.78911820 </i>
    <i name="XCdc">   1262.50068149 </i>
    <i name="pawpsdc">  37168.32626179 </i>
    <i name="pawaedc"> -36574.08493409 </i>
    <i name="eentropy">     -0.00000000 </i>
    <i name="bandstr">  -2264.13158263 </i>
    <i name="atom">  40341.65184589 </i>
    <i name="e_fr_energy">   -206.42939029 </i>
    <i name="e_wo_entrp">   -206.42939029 </i>
    <i name="e_0_energy">   -206.42939029 </i>
   </energy>
  </scstep>
  <scstep>
   <time name="dav">   18.71   18.71</time>
   <time name="total">   20.41   20.42</time>
   <energy>
    <i name="e_fr_energy">   -206.42939029 </i>
    <i name="e_wo_entrp">   -206.42939029 </i>
    <i name="e_0_energy">   -206.42939029 </i>
   </energy>
  </scstep>
  <scstep>
   <time name="dav">   18.72   18.72</time>
   <time name="total">   20.40   20.40</time>
   <energy>
    <i name="e_fr_energy">   -206.42939029 </i>
    <i name="e_wo_entrp">   -206.42939029 </i>
    <i name="e_0_energy">   -206.42939029 </i>
   </energy>
  </scstep>
  <scstep>
   <time name="dav">   18.65   18.65</time>
   <time name="total">   20.33   20.33</time>
   <energy>
    <i name="e_fr_energy">   -206.42939029 </i>
    <i name="e_wo_entrp">   -206.42939029 </i>
    <i name="e_0_energy">   -206.42939029 </i>
   </energy>
  </scstep>
  <scstep>
   <time name="dav">   18.70   18.70</time>
   <time name="total">   19.23   19.23</time>
   <energy>
    <i name="alphaZ">   1478.06076683 </i>
    <i name="ewald"> -30943.96331137 </i>
    <i name="hartreedc"> -10674.78912385 </i>
    <i name="XCdc">   1262.50067751 </i>
    <i name="pawpsdc">  37168.32570123 </i>
    <i name="pawaedc"> -36574.08435990 </i>
    <i name="eentropy">     -0.00000000 </i>
    <i name="bandstr">  -2264.13158664 </i>
    <i name="atom">  40341.65184589 </i>
    <i name="e_fr_energy">   -206.42939029 </i>
    <i name="e_wo_entrp">   -206.42939029 </i>
    <i name="e_0_energy">   -206.42939029 </i>
   </energy>
  </scstep>
  <structure>
   <crystal>
    <varray name="basis" >
     <v>       7.56575348       0.00000000       0.00000000 </v>
     <v>       0.00000000       7.56575348       0.00000000 </v>
     <v>       0.00000000       0.00000000      11.93965724 </v>
    </varray>
    <i name="volume">    683.43345184 </i>
    <varray name="rec_basis" >
     <v>       0.13217454       0.00000000       0.00000000 </v>
     <v>       0.00000000       0.13217454       0.00000000 </v>
     <v>       0.00000000       0.00000000       0.08375450 </v>
    </varray>
   </crystal>
   <varray name="positions" >
    <v>       0.24864801       0.24864801       0.85905511 </v>
    <v>       0.75135199       0.24864801       0.85905511 </v>
    <v>       0.24864801       0.75135199       0.85905511 </v>
    <v>       0.75135199       0.75135199       0.85905511 </v>
    <v>       1.00000000       1.00000000       0.64171749 </v>
    <v>       0.50000000       1.00000000       0.64265493 </v>
    <v>       1.00000000       0.50000000       0.64265493 </v>
    <v>       0.50000000       0.50000000       0.64366822 </v>
    <v>       1.00000000       1.00000000       0.35828251 </v>
    <v>       0.50000000       1.00000000       0.35734507 </v>
    <v>       1.00000000       0.50000000       0.35734507 </v>
    <v>       0.50000000       0.50000000       0.35633178 </v>
    <v>       0.24864801       0.24864801       0.14094489 </v>
    <v>       0.75135199       0.24864801       0.14094489 </v>
    <v>       0.24864801       0.75135199       0.14094489 </v>
    <v>       0.75135199       0.75135199       0.14094489 </v>
    <v>       0.50000000       1.00000000       1.00000000 </v>
    <v>       1.00000000       0.50000000       1.00000000 </v>
    <v>       0.50000000       0.50000000       1.00000000 </v>
    <v>       0.25051711       0.25051711       0.50000000 </v>
    <v>       0.74948289       0.25051711       0.50000000 </v>
    <v>       0.25051711       0.74948289       0.50000000 </v>
    <v>       0.74948289       0.74948289       0.50000000 </v>
    <v>       1.00000000       0.24936959       0.75018594 </v>
    <v>       0.50000000       0.24950117       0.75159480 </v>
    <v>       1.00000000       0.75063041       0.75018594 </v>
    <v>       0.50000000       0.75049883       0.75159480 </v>
    <v>       0.24936959       1.00000000       0.75018594 </v>
    <v>       0.75063041       1.00000000       0.75018594 </v>
    <v>       0.24950117       0.50000000       0.75159480 </v>
    <v>       0.75049883       0.50000000       0.75159480 </v>
    <v>       0.24936959       1.00000000       0.24981406 </v>
    <v>       0.75063041       1.00000000       0.24981406 </v>
    <v>       0.24950117       0.50000000       0.24840520 </v>
    <v>       0.75049883       0.50000000       0.24840520 </v>
    <v>       1.00000000       0.24936959       0.24981406 </v>
    <v>       0.50000000       0.24950117       0.24840520 </v>
[...]
       <r>    7.3222    1.0000 </r>
       <r>    7.3438    1.0000 </r>
       <r>    9.4933    0.0000 </r>
       <r>    9.5330    0.0000 </r>
       <r>    9.5330    0.0000 </r>
       <r>    9.5668    0.0000 </r>
       <r>   10.3250    0.0000 </r>
       <r>   10.3590    0.0000 </r>
       <r>   10.3590    0.0000 </r>
       <r>   10.3871    0.0000 </r>
       <r>   10.6027    0.0000 </r>
       <r>   10.6130    0.0000 </r>
       <r>   10.6327    0.0000 </r>
       <r>   10.6327    0.0000 </r>
       <r>   10.9470    0.0000 </r>
       <r>   10.9719    0.0000 </r>
       <r>   10.9911    0.0000 </r>
       <r>   10.9911    0.0000 </r>
       <r>   11.4719    0.0000 </r>
       <r>   11.4719    0.0000 </r>
       <r>   11.5014    0.0000 </r>
       <r>   11.5343    0.0000 </r>
       <r>   11.5984    0.0000 </r>
       <r>   11.6282    0.0000 </r>
       <r>   11.6282    0.0000 </r>
       <r>   11.6638    0.0000 </r>
       <r>   12.5404    0.0000 </r>
       <r>   12.5404    0.0000 </r>
       <r>   12.5545    0.0000 </r>
       <r>   12.5708    0.0000 </r>
       <r>   12.7378    0.0000 </r>
       <r>   12.7378    0.0000 </r>
       <r>   12.7387    0.0000 </r>
       <r>   12.7645    0.0000 </r>
       <r>   13.1971    0.0000 </r>
       <r>   13.2367    0.0000 </r>
       <r>   13.2367    0.0000 </r>
       <r>   13.2445    0.0000 </r>
       <r>   13.2861    0.0000 </r>
       <r>   13.2861    0.0000 </r>
       <r>   13.3842    0.0000 </r>
       <r>   13.3859    0.0000 </r>
      </set>
     </set>
    </set>
   </array>
  </eigenvalues>
  <separator name="orbital magnetization" >
   <v name="MAGDIPOLOUT">      0.00000000      0.00000000      0.00000000</v>
  </separator>
  <dos>
   <i name="efermi">      7.69957602 </i>
   <total>
    <array>
     <dimension dim="1">gridpoints</dimension>
     <dimension dim="2">spin</dimension>
     <field>energy</field>
     <field>total</field>
     <field>integrated</field>
     <set>
      <set comment="spin 1">
       <r>   -16.8970     0.0000     0.0000 </r>
       <r>   -16.7901     0.0000     0.0000 </r>
       <r>   -16.6832     0.0000     0.0000 </r>
       <r>   -16.5763     0.0000     0.0000 </r>
       <r>   -16.4694     0.0000     0.0000 </r>
       <r>   -16.3625     0.0000     0.0000 </r>
       <r>   -16.2557     0.0000     0.0000 </r>
       <r>   -16.1488     0.0000     0.0000 </r>
       <r>   -16.0419     0.0000     0.0000 </r>
       <r>   -15.9350     0.0000     0.0000 </r>
       <r>   -15.8281     0.0000     0.0000 </r>
       <r>   -15.7212     0.0000     0.0000 </r>
       <r>   -15.6144     0.0000     0.0000 </r>
       <r>   -15.5075     0.4934     0.0527 </r>
       <r>   -15.4006    91.3130     9.8126 </r>
       <r>   -15.2937   142.1613    25.0072 </r>
       <r>   -15.1868   267.0165    53.5469 </r>
       <r>   -15.0799   818.8379   141.0670 </r>
       <r>   -14.9731   176.9126   159.9760 </r>
       <r>   -14.8662     0.2246   160.0000 </r>
       <r>   -14.7593     0.0000   160.0000 </r>
       <r>   -14.6524     0.0000   160.0000 </r>
       <r>   -14.5455     0.0000   160.0000 </r>
       <r>   -14.4386     0.0000   160.0000 </r>
       <r>   -14.3318     0.0000   160.0000 </r>
       <r>   -14.2249     0.0000   160.0000 </r>
       <r>   -14.1180     0.0000   160.0000 </r>
       <r>   -14.0111     0.0000   160.0000 </r>
       <r>   -13.9042     0.0000   160.0000 </r>
       <r>   -13.7973     0.0000   160.0000 </r>
       <r>   -13.6905     0.0000   160.0000 </r>
       <r>   -13.5836     0.0000   160.0000 </r>
       <r>   -13.4767     0.0000   160.0000 </r>
       <r>   -13.3698     0.0000   160.0000 </r>
       <r>   -13.2629     0.0000   160.0000 </r>
       <r>   -13.1560     0.0000   160.0000 </r>
       <r>   -13.0492     0.0000   160.0000 </r>
       <r>   -12.9423     0.0000   160.0000 </r>
       <r>   -12.8354     0.0000   160.0000 </r>
       <r>   -12.7285     0.0000   160.0000 </r>
       <r>   -12.6216     0.0000   160.0000 </r>
       <r>   -12.5147     0.0000   160.0000 </r>
       <r>   -12.4079     0.0001   160.0000 </r>
       <r>   -12.3010     0.2982   160.0319 </r>
       <r>   -12.1941     2.4106   160.2895 </r>
       <r>   -12.0872     8.1967   161.1656 </r>
       <r>   -11.9803     8.3604   162.0592 </r>
       <r>   -11.8734     1.8757   162.2597 </r>
       <r>   -11.7666     6.1686   162.9190 </r>
       <r>   -11.6597    15.3235   164.5568 </r>
       <r>   -11.5528     6.4697   165.2483 </r>
       <r>   -11.4459     0.4857   165.3002 </r>
       <r>   -11.3390     7.5541   166.1076 </r>
       <r>   -11.2321    11.1728   167.3018 </r>
       <r>   -11.1253    17.2920   169.1501 </r>
       <r>   -11.0184     1.7478   169.3369 </r>
       <r>   -10.9115    15.2685   170.9688 </r>
       <r>   -10.8046     2.6353   171.2505 </r>
       <r>   -10.6977     4.7557   171.7588 </r>
       <r>   -10.5908    29.5595   174.9182 </r>
       <r>   -10.4840    14.1823   176.4341 </r>
       <r>   -10.3771    10.9532   177.6048 </r>
       <r>   -10.2702    17.8325   179.5108 </r>
       <r>   -10.1633    11.7916   180.7711 </r>
       <r>   -10.0564    43.9177   185.4652 </r>
       <r>    -9.9495     2.7146   185.7553 </r>
       <r>    -9.8427     6.0761   186.4047 </r>
       <r>    -9.7358    17.0385   188.2259 </r>
       <r>    -9.6289    14.2180   189.7455 </r>
       <r>    -9.5220     6.8211   190.4746 </r>
       <r>    -9.4151    12.0870   191.7665 </r>
       <r>    -9.3082     2.1681   191.9982 </r>
       <r>    -9.2014     0.0165   192.0000 </r>
       <r>    -9.0945     0.0000   192.0000 </r>
       <r>    -8.9876     0.0000   192.0000 </r>
       <r>    -8.8807     0.0000   192.0000 </r>
       <r>    -8.7738     0.0000   192.0000 </r>
       <r>    -8.6669     0.0000   192.0000 </r>
       <r>    -8.5601     0.0000   192.0000 </r>
       <r>    -8.4532     0.0000   192.0000 </r>
       <r>    -8.3463     0.0000   192.0000 </r>
       <r>    -8.2394     0.0000   192.0000 </r>
       <r>    -8.1325     0.0000   192.0000 </r>
       <r>    -8.0256     0.0000   192.0000 </r>
       <r>    -7.9188     0.0000   192.0000 </r>
       <r>    -7.8119     0.0000   192.0000 </r>
       <r>    -7.7050     0.0000   192.0000 </r>
       <r>    -7.5981     0.0000   192.0000 </r>
       <r>    -7.4912     0.0000   192.0000 </r>
       <r>    -7.3843     0.0000   192.0000 </r>
       <r>    -7.2775     0.0000   192.0000 </r>
       <r>    -7.1706     0.0000   192.0000 </r>
       <r>    -7.0637     0.0000   192.0000 </r>
       <r>    -6.9568     0.0000   192.0000 </r>
       <r>    -6.8499     0.0000   192.0000 </r>
       <r>    -6.7430     0.0000   192.0000 </r>
       <r>    -6.6362     0.0000   192.0000 </r>
       <r>    -6.5293     0.0000   192.0000 </r>
       <r>    -6.4224     0.0000   192.0000 </r>
       <r>    -6.3155     0.0000   192.0000 </r>
       <r>    -6.2086     0.0000   192.0000 </r>
       <r>    -6.1017     0.0000   192.0000 </r>
       <r>    -5.9949     0.0024   192.0003 </r>
       <r>    -5.8880     0.2716   192.0293 </r>
       <r>    -5.7811     1.1218   192.1492 </r>
       <r>    -5.6742     2.3641   192.4019 </r>
       <r>    -5.5673     3.9164   192.8205 </r>
       <r>    -5.4604     3.1110   193.1530 </r>
       <r>    -5.3536     2.6621   193.4375 </r>
       <r>    -5.2467     7.5164   194.2409 </r>
       <r>    -5.1398     9.2471   195.2293 </r>
       <r>    -5.0329     4.4818   195.7083 </r>
       <r>    -4.9260     5.2119   196.2654 </r>
       <r>    -4.8191     8.1821   197.1399 </r>
       <r>    -4.7123     6.6017   197.8455 </r>
       <r>    -4.6054    10.1482   198.9302 </r>
       <r>    -4.4985     7.4011   199.7212 </r>
       <r>    -4.3916     8.0766   200.5845 </r>
       <r>    -4.2847    12.6078   201.9321 </r>
       <r>    -4.1778     9.9531   202.9959 </r>
       <r>    -4.0710     8.7203   203.9279 </r>
       <r>    -3.9641    13.5586   205.3771 </r>
       <r>    -3.8572     8.0697   206.2396 </r>
       <r>    -3.7503     6.8261   206.9692 </r>
       <r>    -3.6434     5.7323   207.5819 </r>
       <r>    -3.5365     4.4573   208.0583 </r>
       <r>    -3.4297    11.2609   209.2620 </r>
       <r>    -3.3228     9.3944   210.2661 </r>
       <r>    -3.2159    18.7579   212.2710 </r>
       <r>    -3.1090    28.6837   215.3368 </r>
       <r>    -3.0021    31.7048   218.7255 </r>
       <r>    -2.8952    30.4812   221.9834 </r>
       <r>    -2.7884    10.0426   223.0568 </r>
       <r>    -2.6815    10.4568   224.1745 </r>
       <r>    -2.5746    17.4558   226.0402 </r>
       <r>    -2.4677     7.6143   226.8540 </r>
       <r>    -2.3608    15.4862   228.5092 </r>
       <r>    -2.2539    10.4958   229.6311 </r>
       <r>    -2.1471    15.8120   231.3211 </r>
       <r>    -2.0402     7.7606   232.1506 </r>
       <r>    -1.9333     0.7215   232.2277 </r>
       <r>    -1.8264     6.3017   232.9012 </r>
       <r>    -1.7195     8.6448   233.8252 </r>
       <r>    -1.6126     5.0982   234.3701 </r>
       <r>    -1.5058     3.4343   234.7372 </r>
       <r>    -1.3989     0.2949   234.7687 </r>
       <r>    -1.2920     7.7384   235.5958 </r>
       <r>    -1.1851    11.1702   236.7897 </r>
       <r>    -1.0782     7.5175   237.5932 </r>
       <r>    -0.9713     1.4907   237.7526 </r>
       <r>    -0.8645     1.4493   237.9075 </r>
       <r>    -0.7576     3.9845   238.3334 </r>
       <r>    -0.6507     1.6001   238.5044 </r>
       <r>    -0.5438     5.7072   239.1144 </r>
       <r>    -0.4369     1.7315   239.2995 </r>
       <r>    -0.3300     1.9081   239.5034 </r>
       <r>    -0.2232     2.4667   239.7671 </r>
       <r>    -0.1163     1.0039   239.8743 </r>
       <r>    -0.0094     0.0974   239.8848 </r>
       <r>     0.0975     0.6640   239.9557 </r>
       <r>     0.2044     0.2786   239.9855 </r>
       <r>     0.3113     0.1355   240.0000 </r>
       <r>     0.4181     0.0001   240.0000 </r>
       <r>     0.5250     0.0000   240.0000 </r>
       <r>     0.6319     0.0000   240.0000 </r>
       <r>     0.7388     0.0000   240.0000 </r>
       <r>     0.8457     0.0000   240.0000 </r>
       <r>     0.9526     0.0000   240.0000 </r>
       <r>     1.0594     0.0000   240.0000 </r>
       <r>     1.1663     0.0000   240.0000 </r>
       <r>     1.2732     0.1651   240.0176 </r>
       <r>     1.3801     1.8093   240.2110 </r>
       <r>     1.4870    12.3349   241.5294 </r>
       <r>     1.5939    31.5208   244.8985 </r>
       <r>     1.7007    20.6269   247.1031 </r>
       <r>     1.8076    14.3409   248.6359 </r>
       <r>     1.9145    19.2566   250.6942 </r>
       <r>     2.0214    27.3056   253.6127 </r>
       <r>     2.1283    30.5106   256.8738 </r>
       <r>     2.2352    21.3646   259.1573 </r>
       <r>     2.3420    16.9841   260.9726 </r>
       <r>     2.4489    18.3322   262.9320 </r>
       <r>     2.5558    18.0567   264.8619 </r>
       <r>     2.6627    16.7721   266.6546 </r>
       <r>     2.7696    10.7069   267.7990 </r>
       <r>     2.8765    25.1674   270.4890 </r>
       <r>     2.9833    37.6199   274.5099 </r>
       <r>     3.0902    16.8538   276.3113 </r>
       <r>     3.1971    27.1753   279.2159 </r>
       <r>     3.3040    19.0418   281.2511 </r>
       <r>     3.4109    21.5927   283.5590 </r>
       <r>     3.5178    22.9187   286.0087 </r>
       <r>     3.6246    25.8790   288.7747 </r>
       <r>     3.7315    22.5095   291.1806 </r>
       <r>     3.8384    13.8836   292.6645 </r>
       <r>     3.9453    16.6507   294.4442 </r>
       <r>     4.0522    24.5754   297.0709 </r>
       <r>     4.1591    35.1907   300.8322 </r>
       <r>     4.2659    23.8478   303.3811 </r>
       <r>     4.3728    24.5102   306.0009 </r>
       <r>     4.4797    13.5876   307.4532 </r>
       <r>     4.5866    19.5373   309.5414 </r>
       <r>     4.6935    21.9294   311.8853 </r>
       <r>     4.8004    19.1923   313.9366 </r>
       <r>     4.9072    11.8180   315.1997 </r>
       <r>     5.0141    20.5046   317.3913 </r>
       <r>     5.1210    39.3966   321.6022 </r>
       <r>     5.2279    28.8641   324.6873 </r>
       <r>     5.3348    25.9494   327.4608 </r>
       <r>     5.4417    35.2488   331.2283 </r>
       <r>     5.5485    37.5885   335.2459 </r>
       <r>     5.6554    22.9170   337.6954 </r>
       <r>     5.7623    32.3532   341.1534 </r>
       <r>     5.8692    32.0628   344.5804 </r>
       <r>     5.9761    20.2348   346.7431 </r>
       <r>     6.0830     9.0874   347.7144 </r>
       <r>     6.1898    35.6753   351.5275 </r>
       <r>     6.2967    35.2158   355.2915 </r>
       <r>     6.4036    27.5157   358.2325 </r>
       <r>     6.5105    40.2601   362.5356 </r>
       <r>     6.6174    24.3880   365.1423 </r>
       <r>     6.7243    30.7060   368.4242 </r>
       <r>     6.8311    30.5962   371.6944 </r>
       <r>     6.9380    12.1750   372.9957 </r>
       <r>     7.0449    20.5671   375.1940 </r>
       <r>     7.1518     9.6539   376.2259 </r>
       <r>     7.2587    20.5429   378.4216 </r>
       <r>     7.3656    23.5795   380.9418 </r>
       <r>     7.4724    23.7178   383.4768 </r>
       <r>     7.5793     4.8904   383.9996 </r>
       <r>     7.6862     0.0042   384.0000 </r>
       <r>     7.7931     0.0000   384.0000 </r>
       <r>     7.9000     0.0000   384.0000 </r>
       <r>     8.0069     0.0000   384.0000 </r>
       <r>     8.1137     0.0001   384.0000 </r>
       <r>     8.2206     0.1379   384.0148 </r>
       <r>     8.3275     0.2502   384.0415 </r>
       <r>     8.4344     0.1549   384.0581 </r>
       <r>     8.5413     0.9093   384.1553 </r>
       <r>     8.6482     0.4940   384.2081 </r>
       <r>     8.7550     0.0026   384.2083 </r>
       <r>     8.8619     0.0000   384.2083 </r>
       <r>     8.9688     0.2441   384.2344 </r>
       <r>     9.0757     3.8307   384.6439 </r>
       <r>     9.1826     5.5623   385.2384 </r>
       <r>     9.2895     3.9296   385.6584 </r>
       <r>     9.3963     0.3770   385.6987 </r>
       <r>     9.5032     7.0802   386.4554 </r>
       <r>     9.6101     9.5236   387.4734 </r>
       <r>     9.7170     6.0782   388.1230 </r>
       <r>     9.8239     8.7305   389.0562 </r>
       <r>     9.9308     5.8477   389.6812 </r>
       <r>    10.0376    11.2273   390.8812 </r>
       <r>    10.1445     9.7706   391.9255 </r>
       <r>    10.2514    11.2550   393.1285 </r>
       <r>    10.3583    32.8178   396.6362 </r>
       <r>    10.4652    19.6962   398.7414 </r>
       <r>    10.5721    22.1652   401.1104 </r>
       <r>    10.6789    10.2810   402.2093 </r>
       <r>    10.7858    20.2671   404.3755 </r>
       <r>    10.8927    25.6889   407.1213 </r>
       <r>    10.9996    24.2518   409.7134 </r>
       <r>    11.1065    15.6891   411.3903 </r>
       <r>    11.2134    37.6850   415.4182 </r>
       <r>    11.3202    29.0250   418.5205 </r>
       <r>    11.4271    18.8652   420.5368 </r>
       <r>    11.5340    16.9674   422.3504 </r>
       <r>    11.6409    21.8905   424.6901 </r>
       <r>    11.7478    19.6007   426.7851 </r>
       <r>    11.8547    28.8359   429.8672 </r>
       <r>    11.9615    23.4269   432.3711 </r>
       <r>    12.0684    12.2833   433.6840 </r>
       <r>    12.1753    15.5407   435.3450 </r>
       <r>    12.2822    12.9228   436.7263 </r>
       <r>    12.3891    14.4330   438.2689 </r>
       <r>    12.4960    20.1412   440.4217 </r>
       <r>    12.6028    14.8428   442.0081 </r>
       <r>    12.7097    20.3270   444.1807 </r>
       <r>    12.8166    37.2347   448.1605 </r>
       <r>    12.9235    33.1919   451.7082 </r>
       <r>    13.0304    19.4846   453.7908 </r>
       <r>    13.1373    21.3999   456.0780 </r>
       <r>    13.2441    26.0381   458.8611 </r>
       <r>    13.3510    26.6346   461.7079 </r>
       <r>    13.4579    10.4743   462.8274 </r>
       <r>    13.5648     8.0903   463.6921 </r>
       <r>    13.6717     1.6665   463.8702 </r>
       <r>    13.7786     1.1883   463.9973 </r>
       <r>    13.8854     0.0257   464.0000 </r>
       <r>    13.9923     0.0000   464.0000 </r>
       <r>    14.0992     0.0000   464.0000 </r>
       <r>    14.2061     0.0000   464.0000 </r>
       <r>    14.3130     0.0000   464.0000 </r>
       <r>    14.4199     0.0000   464.0000 </r>
       <r>    14.5267     0.0000   464.0000 </r>
       <r>    14.6336     0.0000   464.0000 </r>
       <r>    14.7405     0.0000   464.0000 </r>
       <r>    14.8474     0.0000   464.0000 </r>
       <r>    14.9543     0.0000   464.0000 </r>
       <r>    15.0612     0.0000   464.0000 </r>
       <r>    15.1680     0.0000   464.0000 </r>
      </set>
     </set>
    </array>
   </total>
  </dos>
 </calculation>
 <structure name="finalpos" >
  <crystal>
   <varray name="basis" >
    <v>       7.56575348       0.00000000       0.00000000 </v>
    <v>       0.00000000       7.56575348       0.00000000 </v>
    <v>       0.00000000       0.00000000      11.93965724 </v>
   </varray>
   <i name="volume">    683.43345184 </i>
   <varray name="rec_basis" >
    <v>       0.13217454       0.00000000       0.00000000 </v>
    <v>       0.00000000       0.13217454       0.00000000 </v>
    <v>       0.00000000       0.00000000       0.08375450 </v>
   </varray>
  </crystal>
  <varray name="positions" >
   <v>       0.24864729       0.24864729       0.85905635 </v>
   <v>       0.75135271       0.24864729       0.85905635 </v>
   <v>       0.24864729       0.75135271       0.85905635 </v>
   <v>       0.75135271       0.75135271       0.85905635 </v>
   <v>       0.00000000       0.00000000       0.64171751 </v>
   <v>       0.50000000       0.00000000       0.64265634 </v>
   <v>       0.00000000       0.50000000       0.64265634 </v>
   <v>       0.50000000       0.50000000       0.64367090 </v>
   <v>       0.00000000       0.00000000       0.35828249 </v>
   <v>       0.50000000       0.00000000       0.35734366 </v>
   <v>       0.00000000       0.50000000       0.35734366 </v>
   <v>       0.50000000       0.50000000       0.35632910 </v>
   <v>       0.24864729       0.24864729       0.14094365 </v>
   <v>       0.75135271       0.24864729       0.14094365 </v>
   <v>       0.24864729       0.75135271       0.14094365 </v>
   <v>       0.75135271       0.75135271       0.14094365 </v>
   <v>       0.50000000       0.00000000       0.00000000 </v>
   <v>       0.00000000       0.50000000       0.00000000 </v>
   <v>       0.50000000       0.50000000       0.00000000 </v>
   <v>       0.25051810       0.25051810       0.50000000 </v>
   <v>       0.74948190       0.25051810       0.50000000 </v>
   <v>       0.25051810       0.74948190       0.50000000 </v>
   <v>       0.74948190       0.74948190       0.50000000 </v>
   <v>       0.00000000       0.24936838       0.75018746 </v>
   <v>       0.50000000       0.24949995       0.75159718 </v>
   <v>       0.00000000       0.75063162       0.75018746 </v>
   <v>       0.50000000       0.75050005       0.75159718 </v>
   <v>       0.24936838       0.00000000       0.75018746 </v>
   <v>       0.75063162       0.00000000       0.75018746 </v>
   <v>       0.24949995       0.50000000       0.75159718 </v>
   <v>       0.75050005       0.50000000       0.75159718 </v>
   <v>       0.24936838       0.00000000       0.24981254 </v>
   <v>       0.75063162       0.00000000       0.24981254 </v>
   <v>       0.24949995       0.50000000       0.24840282 </v>
   <v>       0.75050005       0.50000000       0.24840282 </v>
   <v>       0.00000000       0.24936838       0.24981254 </v>
   <v>       0.50000000       0.24949995       0.24840282 </v>
   <v>       0.00000000       0.75063162       0.24981254 </v>
   <v>       0.50000000       0.75050005       0.24840282 </v>
   <v>       0.00000000       0.00000000       0.00000000 </v>
  </varray>
 </structure>
</modeling>
