unknown system                          
           1
     7.565753    0.000000    0.000000
     0.000000    7.565753    0.000000
     0.000000    0.000000   11.939657
   Bi   Se   O    S 
    16     7    16     1
Direct configuration=     1
   0.24864636  0.24864636  0.85905303
   0.75135364  0.24864636  0.85905303
   0.24864636  0.75135364  0.85905303
   0.75135364  0.75135364  0.85905303
   0.00000000  0.00000000  0.64171235
   0.50000000  0.00000000  0.64265294
   0.00000000  0.50000000  0.64265294
   0.50000000  0.50000000  0.64366857
   0.00000000  0.00000000  0.35828765
   0.50000000  0.00000000  0.35734706
   0.00000000  0.50000000  0.35734706
   0.50000000  0.50000000  0.35633143
   0.24864636  0.24864636  0.14094697
   0.75135364  0.24864636  0.14094697
   0.24864636  0.75135364  0.14094697
   0.75135364  0.75135364  0.14094697
   0.50000000  0.00000000  0.00000000
   0.00000000  0.50000000  0.00000000
   0.50000000  0.50000000  0.00000000
   0.25051125  0.25051125  0.50000000
   0.74948875  0.25051125  0.50000000
   0.25051125  0.74948875  0.50000000
   0.74948875  0.74948875  0.50000000
   0.00000000  0.24936832  0.75018517
   0.50000000  0.24949997  0.75159089
   0.00000000  0.75063168  0.75018517
   0.50000000  0.75050003  0.75159089
   0.24936832  0.00000000  0.75018517
   0.75063168  0.00000000  0.75018517
   0.24949997  0.50000000  0.75159089
   0.75050003  0.50000000  0.75159089
   0.24936832  0.00000000  0.24981483
   0.75063168  0.00000000  0.24981483
   0.24949997  0.50000000  0.24840911
   0.75050003  0.50000000  0.24840911
   0.00000000  0.24936832  0.24981483
   0.50000000  0.24949997  0.24840911
   0.00000000  0.75063168  0.24981483
   0.50000000  0.75050003  0.24840911
   0.00000000  0.00000000  0.00000000
Direct configuration=     2
   0.24864706  0.24864706  0.85905323
   0.75135294  0.24864706  0.85905323
   0.24864706  0.75135294  0.85905323
   0.75135294  0.75135294  0.85905323
   1.00000000  1.00000000  0.64171396
   0.50000000  1.00000000  0.64265332
   1.00000000  0.50000000  0.64265332
   0.50000000  0.50000000  0.64366811
   1.00000000  1.00000000  0.35828604
   0.50000000  1.00000000  0.35734668
   1.00000000  0.50000000  0.35734668
   0.50000000  0.50000000  0.35633189
   0.24864706  0.24864706  0.14094677
   0.75135294  0.24864706  0.14094677
   0.24864706  0.75135294  0.14094677
   0.75135294  0.75135294  0.14094677
   0.50000000  1.00000000  1.00000000
   1.00000000  0.50000000  1.00000000
   0.50000000  0.50000000  0.00000000
   0.25051289  0.25051289  0.50000000
   0.74948711  0.25051289  0.50000000
   0.25051289  0.74948711  0.50000000
   0.74948711  0.74948711  0.50000000
   1.00000000  0.24936878  0.75018543
   0.50000000  0.24950047  0.75159224
   1.00000000  0.75063122  0.75018543
   0.50000000  0.75049953  0.75159224
   0.24936878  1.00000000  0.75018543
   0.75063122  1.00000000  0.75018543
   0.24950047  0.50000000  0.75159224
   0.75049953  0.50000000  0.75159224
   0.24936878  1.00000000  0.24981457
   0.75063122  1.00000000  0.24981457
   0.24950047  0.50000000  0.24840776
   0.75049953  0.50000000  0.24840776
   1.00000000  0.24936878  0.24981457
   0.50000000  0.24950047  0.24840776
   1.00000000  0.75063122  0.24981457
   0.50000000  0.75049953  0.24840776
   1.00000000  1.00000000  0.00000000
Direct configuration=     3
   0.24864811  0.24864811  0.85905355
   0.75135189  0.24864811  0.85905355
   0.24864811  0.75135189  0.85905355
   0.75135189  0.75135189  0.85905355
   0.00000000  0.00000000  0.64171640
   0.50000000  0.00000000  0.64265390
   0.00000000  0.50000000  0.64265390
   0.50000000  0.50000000  0.64366741
   0.00000000  0.00000000  0.35828360
   0.50000000  0.00000000  0.35734610
   0.00000000  0.50000000  0.35734610
   0.50000000  0.50000000  0.35633259
   0.24864811  0.24864811  0.14094645
   0.75135189  0.24864811  0.14094645
   0.24864811  0.75135189  0.14094645
   0.75135189  0.75135189  0.14094645
   0.50000000  0.00000000  0.00000000
   0.00000000  0.50000000  0.00000000
   0.50000000  0.50000000  0.00000000
   0.25051538  0.25051538  0.50000000
   0.74948462  0.25051538  0.50000000
   0.25051538  0.74948462  0.50000000
   0.74948462  0.74948462  0.50000000
   0.00000000  0.24936947  0.75018583
   0.50000000  0.24950123  0.75159428
   0.00000000  0.75063053  0.75018583
   0.50000000  0.75049877  0.75159428
   0.24936947  0.00000000  0.75018583
   0.75063053  0.00000000  0.75018583
   0.24950123  0.50000000  0.75159428
   0.75049877  0.50000000  0.75159428
   0.24936947  0.00000000  0.24981417
   0.75063053  0.00000000  0.24981417
   0.24950123  0.50000000  0.24840572
   0.75049877  0.50000000  0.24840572
   0.00000000  0.24936947  0.24981417
   0.50000000  0.24950123  0.24840572
   0.00000000  0.75063053  0.24981417
   0.50000000  0.75049877  0.24840572
   0.00000000  0.00000000  0.00000000
Direct configuration=     4
   0.24864800  0.24864800  0.85905522
   0.75135200  0.24864800  0.85905522
   0.24864800  0.75135200  0.85905522
   0.75135200  0.75135200  0.85905522
   1.00000000  1.00000000  0.64171756
   0.50000000  1.00000000  0.64265500
   1.00000000  0.50000000  0.64265500
   0.50000000  0.50000000  0.64366827
   1.00000000  1.00000000  0.35828244
   0.50000000  1.00000000  0.35734500
   1.00000000  0.50000000  0.35734500
   0.50000000  0.50000000  0.35633173
   0.24864800  0.24864800  0.14094478
   0.75135200  0.24864800  0.14094478
   0.24864800  0.75135200  0.14094478
   0.75135200  0.75135200  0.14094478
   0.50000000  1.00000000  1.00000000
   1.00000000  0.50000000  1.00000000
   0.50000000  0.50000000  1.00000000
   0.25051723  0.25051723  0.50000000
   0.74948277  0.25051723  0.50000000
   0.25051723  0.74948277  0.50000000
   0.74948277  0.74948277  0.50000000
   1.00000000  0.24936960  0.75018594
   0.50000000  0.24950116  0.75159483
   1.00000000  0.75063040  0.75018594
   0.50000000  0.75049884  0.75159483
   0.24936960  1.00000000  0.75018594
   0.75063040  1.00000000  0.75018594
   0.24950116  0.50000000  0.75159483
   0.75049884  0.50000000  0.75159483
   0.24936960  1.00000000  0.24981406
   0.75063040  1.00000000  0.24981406
   0.24950116  0.50000000  0.24840517
   0.75049884  0.50000000  0.24840517
   1.00000000  0.24936960  0.24981406
   0.50000000  0.24950116  0.24840517
   1.00000000  0.75063040  0.24981406
   0.50000000  0.75049884  0.24840517
   1.00000000  1.00000000  1.00000000
Direct configuration=     5
   0.24864802  0.24864802  0.85905496
   0.75135198  0.24864802  0.85905496
   0.24864802  0.75135198  0.85905496
   0.75135198  0.75135198  0.85905496
   0.00000000  0.00000000  0.64171738
   0.50000000  0.00000000  0.64265483
   0.00000000  0.50000000  0.64265483
   0.50000000  0.50000000  0.64366813
   0.00000000  0.00000000  0.35828262
   0.50000000  0.00000000  0.35734517
   0.00000000  0.50000000  0.35734517
   0.50000000  0.50000000  0.35633187
   0.24864802  0.24864802  0.14094504
   0.75135198  0.24864802  0.14094504
   0.24864802  0.75135198  0.14094504
   0.75135198  0.75135198  0.14094504
   0.50000000  0.00000000  0.00000000
   0.00000000  0.50000000  0.00000000
   0.50000000  0.50000000  0.00000000
   0.25051694  0.25051694  0.50000000
   0.74948306  0.25051694  0.50000000
   0.25051694  0.74948306  0.50000000
   0.74948306  0.74948306  0.50000000
   0.00000000  0.24936958  0.75018592
   0.50000000  0.24950117  0.75159475
   0.00000000  0.75063042  0.75018592
   0.50000000  0.75049883  0.75159475
   0.24936958  0.00000000  0.75018592
   0.75063042  0.00000000  0.75018592
   0.24950117  0.50000000  0.75159475
   0.75049883  0.50000000  0.75159475
   0.24936958  0.00000000  0.24981408
   0.75063042  0.00000000  0.24981408
   0.24950117  0.50000000  0.24840525
   0.75049883  0.50000000  0.24840525
   0.00000000  0.24936958  0.24981408
   0.50000000  0.24950117  0.24840525
   0.00000000  0.75063042  0.24981408
   0.50000000  0.75049883  0.24840525
   0.00000000  0.00000000  0.00000000
Direct configuration=     6
   0.24864801  0.24864801  0.85905511
   0.75135199  0.24864801  0.85905511
   0.24864801  0.75135199  0.85905511
   0.75135199  0.75135199  0.85905511
   1.00000000  1.00000000  0.64171749
   0.50000000  1.00000000  0.64265493
   1.00000000  0.50000000  0.64265493
   0.50000000  0.50000000  0.64366822
   1.00000000  1.00000000  0.35828251
   0.50000000  1.00000000  0.35734507
   1.00000000  0.50000000  0.35734507
   0.50000000  0.50000000  0.35633178
   0.24864801  0.24864801  0.14094489
   0.75135199  0.24864801  0.14094489
   0.24864801  0.75135199  0.14094489
   0.75135199  0.75135199  0.14094489
   0.50000000  1.00000000  1.00000000
   1.00000000  0.50000000  1.00000000
   0.50000000  0.50000000  1.00000000
   0.25051711  0.25051711  0.50000000
   0.74948289  0.25051711  0.50000000
   0.25051711  0.74948289  0.50000000
   0.74948289  0.74948289  0.50000000
   1.00000000  0.24936959  0.75018594
   0.50000000  0.24950117  0.75159480
   1.00000000  0.75063041  0.75018594
   0.50000000  0.75049883  0.75159480
   0.24936959  1.00000000  0.75018594
   0.75063041  1.00000000  0.75018594
   0.24950117  0.50000000  0.75159480
   0.75049883  0.50000000  0.75159480
   0.24936959  1.00000000  0.24981406
   0.75063041  1.00000000  0.24981406
   0.24950117  0.50000000  0.24840520
   0.75049883  0.50000000  0.24840520
   1.00000000  0.24936959  0.24981406
   0.50000000  0.24950117  0.24840520
   1.00000000  0.75063041  0.24981406
   0.50000000  0.75049883  0.24840520
   1.00000000  1.00000000  1.00000000
Direct configuration=     7
   0.24864802  0.24864802  0.85905501
   0.75135198  0.24864802  0.85905501
   0.24864802  0.75135198  0.85905501
   0.75135198  0.75135198  0.85905501
   0.00000000  0.00000000  0.64171741
   0.50000000  0.00000000  0.64265486
   0.00000000  0.50000000  0.64265486
   0.50000000  0.50000000  0.64366816
   0.00000000  0.00000000  0.35828259
   0.50000000  0.00000000  0.35734514
   0.00000000  0.50000000  0.35734514
   0.50000000  0.50000000  0.35633184
   0.24864802  0.24864802  0.14094499
   0.75135198  0.24864802  0.14094499
   0.24864802  0.75135198  0.14094499
   0.75135198  0.75135198  0.14094499
   0.50000000  0.00000000  0.00000000
   0.00000000  0.50000000  0.00000000
   0.50000000  0.50000000  0.00000000
   0.25051699  0.25051699  0.50000000
   0.74948301  0.25051699  0.50000000
   0.25051699  0.74948301  0.50000000
   0.74948301  0.74948301  0.50000000
   0.00000000  0.24936958  0.75018593
   0.50000000  0.24950117  0.75159476
   0.00000000  0.75063042  0.75018593
   0.50000000  0.75049883  0.75159476
   0.24936958  0.00000000  0.75018593
   0.75063042  0.00000000  0.75018593
   0.24950117  0.50000000  0.75159476
   0.75049883  0.50000000  0.75159476
   0.24936958  0.00000000  0.24981407
   0.75063042  0.00000000  0.24981407
   0.24950117  0.50000000  0.24840524
   0.75049883  0.50000000  0.24840524
   0.00000000  0.24936958  0.24981407
   0.50000000  0.24950117  0.24840524
   0.00000000  0.75063042  0.24981407
   0.50000000  0.75049883  0.24840524
   0.00000000  0.00000000  0.00000000
Direct configuration=     8
   0.24864801  0.24864801  0.85905507
   0.75135199  0.24864801  0.85905507
   0.24864801  0.75135199  0.85905507
   0.75135199  0.75135199  0.85905507
   1.00000000  1.00000000  0.64171746
   0.50000000  1.00000000  0.64265490
   1.00000000  0.50000000  0.64265490
   0.50000000  0.50000000  0.64366819
   1.00000000  1.00000000  0.35828254
   0.50000000  1.00000000  0.35734510
   1.00000000  0.50000000  0.35734510
   0.50000000  0.50000000  0.35633181
   0.24864801  0.24864801  0.14094493
   0.75135199  0.24864801  0.14094493
   0.24864801  0.75135199  0.14094493
   0.75135199  0.75135199  0.14094493
   0.50000000  1.00000000  1.00000000
   1.00000000  0.50000000  1.00000000
   0.50000000  0.50000000  1.00000000
   0.25051706  0.25051706  0.50000000
   0.74948294  0.25051706  0.50000000
   0.25051706  0.74948294  0.50000000
   0.74948294  0.74948294  0.50000000
   1.00000000  0.24936959  0.75018593
   0.50000000  0.24950117  0.75159478
   1.00000000  0.75063041  0.75018593
   0.50000000  0.75049883  0.75159478
   0.24936959  1.00000000  0.75018593
   0.75063041  1.00000000  0.75018593
   0.24950117  0.50000000  0.75159478
   0.75049883  0.50000000  0.75159478
   0.24936959  1.00000000  0.24981407
   0.75063041  1.00000000  0.24981407
   0.24950117  0.50000000  0.24840522
   0.75049883  0.50000000  0.24840522
   1.00000000  0.24936959  0.24981407
   0.50000000  0.24950117  0.24840522
   1.00000000  0.75063041  0.24981407
   0.50000000  0.75049883  0.24840522
   1.00000000  1.00000000  1.00000000
Direct configuration=     9
   0.24864774  0.24864774  0.85905559
   0.75135226  0.24864774  0.85905559
   0.24864774  0.75135226  0.85905559
   0.75135226  0.75135226  0.85905559
   0.00000000  0.00000000  0.64171740
   0.50000000  0.00000000  0.64265537
   0.00000000  0.50000000  0.64265537
   0.50000000  0.50000000  0.64366898
   0.00000000  0.00000000  0.35828260
   0.50000000  0.00000000  0.35734463
   0.00000000  0.50000000  0.35734463
   0.50000000  0.50000000  0.35633102
   0.24864774  0.24864774  0.14094441
   0.75135226  0.24864774  0.14094441
   0.24864774  0.75135226  0.14094441
   0.75135226  0.75135226  0.14094441
   0.50000000  0.00000000  0.00000000
   0.00000000  0.50000000  0.00000000
   0.50000000  0.50000000  0.00000000
   0.25051807  0.25051807  0.50000000
   0.74948193  0.25051807  0.50000000
   0.25051807  0.74948193  0.50000000
   0.74948193  0.74948193  0.50000000
   0.00000000  0.24936918  0.75018677
   0.50000000  0.24950065  0.75159568
   0.00000000  0.75063082  0.75018677
   0.50000000  0.75049935  0.75159568
   0.24936918  0.00000000  0.75018677
   0.75063082  0.00000000  0.75018677
   0.24950065  0.50000000  0.75159568
   0.75049935  0.50000000  0.75159568
   0.24936918  0.00000000  0.24981323
   0.75063082  0.00000000  0.24981323
   0.24950065  0.50000000  0.24840432
   0.75049935  0.50000000  0.24840432
   0.00000000  0.24936918  0.24981323
   0.50000000  0.24950065  0.24840432
   0.00000000  0.75063082  0.24981323
   0.50000000  0.75049935  0.24840432
   0.00000000  0.00000000  0.00000000
Direct configuration=    10
   0.24864751  0.24864751  0.85905603
   0.75135249  0.24864751  0.85905603
   0.24864751  0.75135249  0.85905603
   0.75135249  0.75135249  0.85905603
   1.00000000  1.00000000  0.64171735
   0.50000000  1.00000000  0.64265577
   1.00000000  0.50000000  0.64265577
   0.50000000  0.50000000  0.64366963
   1.00000000  1.00000000  0.35828265
   0.50000000  1.00000000  0.35734423
   1.00000000  0.50000000  0.35734423
   0.50000000  0.50000000  0.35633037
   0.24864751  0.24864751  0.14094397
   0.75135249  0.24864751  0.14094397
   0.24864751  0.75135249  0.14094397
   0.75135249  0.75135249  0.14094397
   0.50000000  1.00000000  1.00000000
   1.00000000  0.50000000  1.00000000
   0.50000000  0.50000000  1.00000000
   0.25051890  0.25051890  0.50000000
   0.74948110  0.25051890  0.50000000
   0.25051890  0.74948110  0.50000000
   0.74948110  0.74948110  0.50000000
   1.00000000  0.24936884  0.75018747
   0.50000000  0.24950022  0.75159642
   1.00000000  0.75063116  0.75018747
   0.50000000  0.75049978  0.75159642
   0.24936884  1.00000000  0.75018747
   0.75063116  1.00000000  0.75018747
   0.24950022  0.50000000  0.75159642
   0.75049978  0.50000000  0.75159642
   0.24936884  1.00000000  0.24981253
   0.75063116  1.00000000  0.24981253
   0.24950022  0.50000000  0.24840358
   0.75049978  0.50000000  0.24840358
   1.00000000  0.24936884  0.24981253
   0.50000000  0.24950022  0.24840358
   1.00000000  0.75063116  0.24981253
   0.50000000  0.75049978  0.24840358
   1.00000000  1.00000000  1.00000000
Direct configuration=    11
   0.24864758  0.24864758  0.85905610
   0.75135242  0.24864758  0.85905610
   0.24864758  0.75135242  0.85905610
   0.75135242  0.75135242  0.85905610
   0.00000000  0.00000000  0.64171783
   0.50000000  0.00000000  0.64265631
   0.00000000  0.50000000  0.64265631
   0.50000000  0.50000000  0.64367058
   0.00000000  0.00000000  0.35828217
   0.50000000  0.00000000  0.35734369
   0.00000000  0.50000000  0.35734369
   0.50000000  0.50000000  0.35632942
   0.24864758  0.24864758  0.14094390
   0.75135242  0.24864758  0.14094390
   0.24864758  0.75135242  0.14094390
   0.75135242  0.75135242  0.14094390
   0.50000000  0.00000000  0.00000000
   0.00000000  0.50000000  0.00000000
   0.50000000  0.50000000  0.00000000
   0.25051866  0.25051866  0.50000000
   0.74948134  0.25051866  0.50000000
   0.25051866  0.74948134  0.50000000
   0.74948134  0.74948134  0.50000000
   0.00000000  0.24936828  0.75018755
   0.50000000  0.24949989  0.75159687
   0.00000000  0.75063172  0.75018755
   0.50000000  0.75050011  0.75159687
   0.24936828  0.00000000  0.75018755
   0.75063172  0.00000000  0.75018755
   0.24949989  0.50000000  0.75159687
   0.75050011  0.50000000  0.75159687
   0.24936828  0.00000000  0.24981245
   0.75063172  0.00000000  0.24981245
   0.24949989  0.50000000  0.24840313
   0.75050011  0.50000000  0.24840313
   0.00000000  0.24936828  0.24981245
   0.50000000  0.24949989  0.24840313
   0.00000000  0.75063172  0.24981245
   0.50000000  0.75050011  0.24840313
   0.00000000  0.00000000  0.00000000
Direct configuration=    12
   0.24864757  0.24864757  0.85905608
   0.75135243  0.24864757  0.85905608
   0.24864757  0.75135243  0.85905608
   0.75135243  0.75135243  0.85905608
   0.00000000  0.00000000  0.64171773
   0.50000000  0.00000000  0.64265619
   0.00000000  0.50000000  0.64265619
   0.50000000  0.50000000  0.64367038
   0.00000000  0.00000000  0.35828227
   0.50000000  0.00000000  0.35734381
   0.00000000  0.50000000  0.35734381
   0.50000000  0.50000000  0.35632962
   0.24864757  0.24864757  0.14094392
   0.75135243  0.24864757  0.14094392
   0.24864757  0.75135243  0.14094392
   0.75135243  0.75135243  0.14094392
   0.50000000  0.00000000  0.00000000
   0.00000000  0.50000000  0.00000000
   0.50000000  0.50000000  0.00000000
   0.25051871  0.25051871  0.50000000
   0.74948129  0.25051871  0.50000000
   0.25051871  0.74948129  0.50000000
   0.74948129  0.74948129  0.50000000
   0.00000000  0.24936840  0.75018754
   0.50000000  0.24949996  0.75159678
   0.00000000  0.75063160  0.75018754
   0.50000000  0.75050004  0.75159678
   0.24936840  0.00000000  0.75018754
   0.75063160  0.00000000  0.75018754
   0.24949996  0.50000000  0.75159678
   0.75050004  0.50000000  0.75159678
   0.24936840  0.00000000  0.24981246
   0.75063160  0.00000000  0.24981246
   0.24949996  0.50000000  0.24840322
   0.75050004  0.50000000  0.24840322
   0.00000000  0.24936840  0.24981246
   0.50000000  0.24949996  0.24840322
   0.00000000  0.75063160  0.24981246
   0.50000000  0.75050004  0.24840322
   0.00000000  0.00000000  0.00000000
Direct configuration=    13
   0.24864757  0.24864757  0.85905609
   0.75135243  0.24864757  0.85905609
   0.24864757  0.75135243  0.85905609
   0.75135243  0.75135243  0.85905609
   0.00000000  0.00000000  0.64171779
   0.50000000  0.00000000  0.64265626
   0.00000000  0.50000000  0.64265626
   0.50000000  0.50000000  0.64367050
   0.00000000  0.00000000  0.35828221
   0.50000000  0.00000000  0.35734374
   0.00000000  0.50000000  0.35734374
   0.50000000  0.50000000  0.35632950
   0.24864757  0.24864757  0.14094391
   0.75135243  0.24864757  0.14094391
   0.24864757  0.75135243  0.14094391
   0.75135243  0.75135243  0.14094391
   0.50000000  0.00000000  0.00000000
   0.00000000  0.50000000  0.00000000
   0.50000000  0.50000000  0.00000000
   0.25051868  0.25051868  0.50000000
   0.74948132  0.25051868  0.50000000
   0.25051868  0.74948132  0.50000000
   0.74948132  0.74948132  0.50000000
   0.00000000  0.24936833  0.75018755
   0.50000000  0.24949992  0.75159684
   0.00000000  0.75063167  0.75018755
   0.50000000  0.75050008  0.75159684
   0.24936833  0.00000000  0.75018755
   0.75063167  0.00000000  0.75018755
   0.24949992  0.50000000  0.75159684
   0.75050008  0.50000000  0.75159684
   0.24936833  0.00000000  0.24981245
   0.75063167  0.00000000  0.24981245
   0.24949992  0.50000000  0.24840316
   0.75050008  0.50000000  0.24840316
   0.00000000  0.24936833  0.24981245
   0.50000000  0.24949992  0.24840316
   0.00000000  0.75063167  0.24981245
   0.50000000  0.75050008  0.24840316
   0.00000000  0.00000000  0.00000000
Direct configuration=    14
   0.24864757  0.24864757  0.85905609
   0.75135243  0.24864757  0.85905609
   0.24864757  0.75135243  0.85905609
   0.75135243  0.75135243  0.85905609
   0.00000000  0.00000000  0.64171776
   0.50000000  0.00000000  0.64265623
   0.00000000  0.50000000  0.64265623
   0.50000000  0.50000000  0.64367044
   0.00000000  0.00000000  0.35828224
   0.50000000  0.00000000  0.35734377
   0.00000000  0.50000000  0.35734377
   0.50000000  0.50000000  0.35632956
   0.24864757  0.24864757  0.14094391
   0.75135243  0.24864757  0.14094391
   0.24864757  0.75135243  0.14094391
   0.75135243  0.75135243  0.14094391
   0.50000000  0.00000000  0.00000000
   0.00000000  0.50000000  0.00000000
   0.50000000  0.50000000  0.00000000
   0.25051869  0.25051869  0.50000000
   0.74948131  0.25051869  0.50000000
   0.25051869  0.74948131  0.50000000
   0.74948131  0.74948131  0.50000000
   0.00000000  0.24936836  0.75018754
   0.50000000  0.24949994  0.75159681
   0.00000000  0.75063164  0.75018754
   0.50000000  0.75050006  0.75159681
   0.24936836  0.00000000  0.75018754
   0.75063164  0.00000000  0.75018754
   0.24949994  0.50000000  0.75159681
   0.75050006  0.50000000  0.75159681
   0.24936836  0.00000000  0.24981246
   0.75063164  0.00000000  0.24981246
   0.24949994  0.50000000  0.24840319
   0.75050006  0.50000000  0.24840319
   0.00000000  0.24936836  0.24981246
   0.50000000  0.24949994  0.24840319
   0.00000000  0.75063164  0.24981246
   0.50000000  0.75050006  0.24840319
   0.00000000  0.00000000  0.00000000
Direct configuration=    15
   0.24864757  0.24864757  0.85905609
   0.75135243  0.24864757  0.85905609
   0.24864757  0.75135243  0.85905609
   0.75135243  0.75135243  0.85905609
   0.00000000  0.00000000  0.64171778
   0.50000000  0.00000000  0.64265625
   0.00000000  0.50000000  0.64265625
   0.50000000  0.50000000  0.64367047
   0.00000000  0.00000000  0.35828222
   0.50000000  0.00000000  0.35734375
   0.00000000  0.50000000  0.35734375
   0.50000000  0.50000000  0.35632953
   0.24864757  0.24864757  0.14094391
   0.75135243  0.24864757  0.14094391
   0.24864757  0.75135243  0.14094391
   0.75135243  0.75135243  0.14094391
   0.50000000  0.00000000  0.00000000
   0.00000000  0.50000000  0.00000000
   0.50000000  0.50000000  0.00000000
   0.25051868  0.25051868  0.50000000
   0.74948132  0.25051868  0.50000000
   0.25051868  0.74948132  0.50000000
   0.74948132  0.74948132  0.50000000
   0.00000000  0.24936834  0.75018754
   0.50000000  0.24949993  0.75159682
   0.00000000  0.75063166  0.75018754
   0.50000000  0.75050007  0.75159682
   0.24936834  0.00000000  0.75018754
   0.75063166  0.00000000  0.75018754
   0.24949993  0.50000000  0.75159682
   0.75050007  0.50000000  0.75159682
   0.24936834  0.00000000  0.24981246
   0.75063166  0.00000000  0.24981246
   0.24949993  0.50000000  0.24840318
   0.75050007  0.50000000  0.24840318
   0.00000000  0.24936834  0.24981246
   0.50000000  0.24949993  0.24840318
   0.00000000  0.75063166  0.24981246
   0.50000000  0.75050007  0.24840318
   0.00000000  0.00000000  0.00000000
Direct configuration=    16
   0.24864739  0.24864739  0.85905635
   0.75135261  0.24864739  0.85905635
   0.24864739  0.75135261  0.85905635
   0.75135261  0.75135261  0.85905635
   1.00000000  1.00000000  0.64171769
   0.50000000  1.00000000  0.64265633
   1.00000000  0.50000000  0.64265633
   0.50000000  0.50000000  0.64367075
   1.00000000  1.00000000  0.35828231
   0.50000000  1.00000000  0.35734367
   1.00000000  0.50000000  0.35734367
   0.50000000  0.50000000  0.35632925
   0.24864739  0.24864739  0.14094365
   0.75135261  0.24864739  0.14094365
   0.24864739  0.75135261  0.14094365
   0.75135261  0.75135261  0.14094365
   0.50000000  1.00000000  0.00000000
   1.00000000  0.50000000  0.00000000
   0.50000000  0.50000000  0.00000000
   0.25051827  0.25051827  0.50000000
   0.74948173  0.25051827  0.50000000
   0.25051827  0.74948173  0.50000000
   0.74948173  0.74948173  0.50000000
   1.00000000  0.24936820  0.75018748
   0.50000000  0.24949984  0.75159709
   1.00000000  0.75063180  0.75018748
   0.50000000  0.75050016  0.75159709
   0.24936820  1.00000000  0.75018748
   0.75063180  1.00000000  0.75018748
   0.24949984  0.50000000  0.75159709
   0.75050016  0.50000000  0.75159709
   0.24936820  1.00000000  0.24981252
   0.75063180  1.00000000  0.24981252
   0.24949984  0.50000000  0.24840291
   0.75050016  0.50000000  0.24840291
   1.00000000  0.24936820  0.24981252
   0.50000000  0.24949984  0.24840291
   1.00000000  0.75063180  0.24981252
   0.50000000  0.75050016  0.24840291
   1.00000000  1.00000000  0.00000000
Direct configuration=    17
   0.24864745  0.24864745  0.85905626
   0.75135255  0.24864745  0.85905626
   0.24864745  0.75135255  0.85905626
   0.75135255  0.75135255  0.85905626
   0.00000000  0.00000000  0.64171772
   0.50000000  0.00000000  0.64265630
   0.00000000  0.50000000  0.64265630
   0.50000000  0.50000000  0.64367066
   0.00000000  0.00000000  0.35828228
   0.50000000  0.00000000  0.35734370
   0.00000000  0.50000000  0.35734370
   0.50000000  0.50000000  0.35632934
   0.24864745  0.24864745  0.14094374
   0.75135255  0.24864745  0.14094374
   0.24864745  0.75135255  0.14094374
   0.75135255  0.75135255  0.14094374
   0.50000000  0.00000000  0.00000000
   0.00000000  0.50000000  0.00000000
   0.50000000  0.50000000  0.00000000
   0.25051841  0.25051841  0.50000000
   0.74948159  0.25051841  0.50000000
   0.25051841  0.74948159  0.50000000
   0.74948159  0.74948159  0.50000000
   0.00000000  0.24936825  0.75018750
   0.50000000  0.24949987  0.75159699
   0.00000000  0.75063175  0.75018750
   0.50000000  0.75050013  0.75159699
   0.24936825  0.00000000  0.75018750
   0.75063175  0.00000000  0.75018750
   0.24949987  0.50000000  0.75159699
   0.75050013  0.50000000  0.75159699
   0.24936825  0.00000000  0.24981250
   0.75063175  0.00000000  0.24981250
   0.24949987  0.50000000  0.24840301
   0.75050013  0.50000000  0.24840301
   0.00000000  0.24936825  0.24981250
   0.50000000  0.24949987  0.24840301
   0.00000000  0.75063175  0.24981250
   0.50000000  0.75050013  0.24840301
   0.00000000  0.00000000  0.00000000
Direct configuration=    18
   0.24864741  0.24864741  0.85905632
   0.75135259  0.24864741  0.85905632
   0.24864741  0.75135259  0.85905632
   0.75135259  0.75135259  0.85905632
   1.00000000  1.00000000  0.64171770
   0.50000000  1.00000000  0.64265632
   1.00000000  0.50000000  0.64265632
   0.50000000  0.50000000  0.64367072
   1.00000000  1.00000000  0.35828230
   0.50000000  1.00000000  0.35734368
   1.00000000  0.50000000  0.35734368
   0.50000000  0.50000000  0.35632928
   0.24864741  0.24864741  0.14094368
   0.75135259  0.24864741  0.14094368
   0.24864741  0.75135259  0.14094368
   0.75135259  0.75135259  0.14094368
   0.50000000  1.00000000  0.00000000
   1.00000000  0.50000000  0.00000000
   0.50000000  0.50000000  0.00000000
   0.25051833  0.25051833  0.50000000
   0.74948167  0.25051833  0.50000000
   0.25051833  0.74948167  0.50000000
   0.74948167  0.74948167  0.50000000
   1.00000000  0.24936822  0.75018749
   0.50000000  0.24949985  0.75159705
   1.00000000  0.75063178  0.75018749
   0.50000000  0.75050015  0.75159705
   0.24936822  1.00000000  0.75018749
   0.75063178  1.00000000  0.75018749
   0.24949985  0.50000000  0.75159705
   0.75050015  0.50000000  0.75159705
   0.24936822  1.00000000  0.24981251
   0.75063178  1.00000000  0.24981251
   0.24949985  0.50000000  0.24840295
   0.75050015  0.50000000  0.24840295
   1.00000000  0.24936822  0.24981251
   0.50000000  0.24949985  0.24840295
   1.00000000  0.75063178  0.24981251
   0.50000000  0.75050015  0.24840295
   1.00000000  1.00000000  0.00000000
Direct configuration=    19
   0.24864733  0.24864733  0.85905625
   0.75135267  0.24864733  0.85905625
   0.24864733  0.75135267  0.85905625
   0.75135267  0.75135267  0.85905625
   0.00000000  0.00000000  0.64171752
   0.50000000  0.00000000  0.64265627
   0.00000000  0.50000000  0.64265627
   0.50000000  0.50000000  0.64367070
   0.00000000  0.00000000  0.35828248
   0.50000000  0.00000000  0.35734373
   0.00000000  0.50000000  0.35734373
   0.50000000  0.50000000  0.35632930
   0.24864733  0.24864733  0.14094375
   0.75135267  0.24864733  0.14094375
   0.24864733  0.75135267  0.14094375
   0.75135267  0.75135267  0.14094375
   0.50000000  0.00000000  0.00000000
   0.00000000  0.50000000  0.00000000
   0.50000000  0.50000000  0.00000000
   0.25051816  0.25051816  0.50000000
   0.74948184  0.25051816  0.50000000
   0.25051816  0.74948184  0.50000000
   0.74948184  0.74948184  0.50000000
   0.00000000  0.24936834  0.75018751
   0.50000000  0.24949990  0.75159719
   0.00000000  0.75063166  0.75018751
   0.50000000  0.75050010  0.75159719
   0.24936834  0.00000000  0.75018751
   0.75063166  0.00000000  0.75018751
   0.24949990  0.50000000  0.75159719
   0.75050010  0.50000000  0.75159719
   0.24936834  0.00000000  0.24981249
   0.75063166  0.00000000  0.24981249
   0.24949990  0.50000000  0.24840281
   0.75050010  0.50000000  0.24840281
   0.00000000  0.24936834  0.24981249
   0.50000000  0.24949990  0.24840281
   0.00000000  0.75063166  0.24981249
   0.50000000  0.75050010  0.24840281
   0.00000000  0.00000000  0.00000000
Direct configuration=    20
   0.24864737  0.24864737  0.85905628
   0.75135263  0.24864737  0.85905628
   0.24864737  0.75135263  0.85905628
   0.75135263  0.75135263  0.85905628
   0.00000000  0.00000000  0.64171760
   0.50000000  0.00000000  0.64265629
   0.00000000  0.50000000  0.64265629
   0.50000000  0.50000000  0.64367071
   0.00000000  0.00000000  0.35828240