  40  40   0   0
  0.1901316E+02  0.7840159E-09  0.7840159E-09  0.1237270E-08  0.5000000E-15
  1.000000000000000E-004
  CAR 
 unknown system                          
     13.07394904    -18.18526722  301      6.53627526      1.00000000
    -18.185  0.0000E+00  0.0000E+00
    -18.081  0.0000E+00  0.0000E+00
    -17.977  0.0000E+00  0.0000E+00
    -17.873  0.0000E+00  0.0000E+00
    -17.768  0.0000E+00  0.0000E+00
    -17.664  0.0000E+00  0.0000E+00
    -17.560  0.0000E+00  0.0000E+00
    -17.456  0.0000E+00  0.0000E+00
    -17.352  0.0000E+00  0.0000E+00
    -17.247  0.0000E+00  0.0000E+00
    -17.143  0.0000E+00  0.0000E+00
    -17.039  0.3636E-15  0.3789E-16
    -16.935  0.1287E-06  0.1341E-07
    -16.831  0.1413E-01  0.1473E-02
    -16.727  0.1254E+01  0.1322E+00
    -16.622  0.2194E+01  0.3607E+00
    -16.518  0.9198E+01  0.1319E+01
    -16.414  0.2691E+01  0.1600E+01
    -16.310  0.4311E-02  0.1600E+01
    -16.206  0.3388E-08  0.1600E+01
    -16.101  0.0000E+00  0.1600E+01
    -15.997  0.0000E+00  0.1600E+01
    -15.893  0.0000E+00  0.1600E+01
    -15.789  0.0000E+00  0.1600E+01
    -15.685  0.0000E+00  0.1600E+01
    -15.580  0.0000E+00  0.1600E+01
    -15.476  0.0000E+00  0.1600E+01
    -15.372  0.0000E+00  0.1600E+01
    -15.268  0.0000E+00  0.1600E+01
    -15.164  0.0000E+00  0.1600E+01
    -15.059  0.0000E+00  0.1600E+01
    -14.955  0.0000E+00  0.1600E+01
    -14.851  0.0000E+00  0.1600E+01
    -14.747  0.0000E+00  0.1600E+01
    -14.643  0.0000E+00  0.1600E+01
    -14.538  0.0000E+00  0.1600E+01
    -14.434  0.0000E+00  0.1600E+01
    -14.330  0.0000E+00  0.1600E+01
    -14.226  0.0000E+00  0.1600E+01
    -14.122  0.0000E+00  0.1600E+01
    -14.017  0.0000E+00  0.1600E+01
    -13.913  0.0000E+00  0.1600E+01
    -13.809  0.0000E+00  0.1600E+01
    -13.705  0.0000E+00  0.1600E+01
    -13.601  0.0000E+00  0.1600E+01
    -13.496  0.0000E+00  0.1600E+01
    -13.392  0.0000E+00  0.1600E+01
    -13.288  0.8314E-14  0.1600E+01
    -13.184  0.2435E-06  0.1600E+01
    -13.080  0.2131E-02  0.1600E+01
    -12.975  0.3006E-01  0.1603E+01
    -12.871  0.9569E-01  0.1613E+01
    -12.767  0.8467E-01  0.1622E+01
    -12.663  0.3172E-01  0.1625E+01
    -12.559  0.1557E+00  0.1642E+01
    -12.454  0.1032E+00  0.1652E+01
    -12.350  0.1553E-01  0.1654E+01
    -12.246  0.1004E+00  0.1665E+01
    -12.142  0.1913E+00  0.1684E+01
    -12.038  0.8097E-01  0.1693E+01
    -11.933  0.1472E+00  0.1708E+01
    -11.829  0.4156E-01  0.1713E+01
    -11.725  0.1307E+00  0.1726E+01
    -11.621  0.2814E+00  0.1755E+01
    -11.517  0.1761E+00  0.1774E+01
    -11.412  0.1982E+00  0.1794E+01
    -11.308  0.1681E+00  0.1812E+01
    -11.204  0.4229E+00  0.1856E+01
    -11.100  0.2740E-01  0.1859E+01
    -10.996  0.1195E+00  0.1871E+01
    -10.891  0.2375E+00  0.1896E+01
    -10.787  0.7031E-01  0.1903E+01
    -10.683  0.1369E+00  0.1918E+01
    -10.579  0.2172E-01  0.1920E+01
    -10.475  0.1073E-03  0.1920E+01
    -10.370  0.3186E-09  0.1920E+01
    -10.266  0.0000E+00  0.1920E+01
    -10.162  0.0000E+00  0.1920E+01
    -10.058  0.0000E+00  0.1920E+01
     -9.954  0.0000E+00  0.1920E+01
     -9.849  0.0000E+00  0.1920E+01
     -9.745  0.0000E+00  0.1920E+01
     -9.641  0.0000E+00  0.1920E+01
     -9.537  0.0000E+00  0.1920E+01
     -9.433  0.0000E+00  0.1920E+01
     -9.328  0.0000E+00  0.1920E+01
     -9.224  0.0000E+00  0.1920E+01
     -9.120  0.0000E+00  0.1920E+01
     -9.016  0.0000E+00  0.1920E+01
     -8.912  0.0000E+00  0.1920E+01
     -8.808  0.0000E+00  0.1920E+01
     -8.703  0.0000E+00  0.1920E+01
     -8.599  0.0000E+00  0.1920E+01
     -8.495  0.0000E+00  0.1920E+01
     -8.391  0.0000E+00  0.1920E+01
     -8.287  0.0000E+00  0.1920E+01
     -8.182  0.0000E+00  0.1920E+01
     -8.078  0.0000E+00  0.1920E+01
     -7.974  0.0000E+00  0.1920E+01
     -7.870  0.0000E+00  0.1920E+01
     -7.766  0.0000E+00  0.1920E+01
     -7.661  0.0000E+00  0.1920E+01
     -7.557  0.0000E+00  0.1920E+01
     -7.453  0.0000E+00  0.1920E+01
     -7.349  0.0000E+00  0.1920E+01
     -7.245  0.0000E+00  0.1920E+01
     -7.140  0.0000E+00  0.1920E+01
     -7.036  0.0000E+00  0.1920E+01
     -6.932  0.0000E+00  0.1920E+01
     -6.828  0.0000E+00  0.1920E+01
     -6.724  0.0000E+00  0.1920E+01
     -6.619  0.3170E-13  0.1920E+01
     -6.515  0.2980E-06  0.1920E+01
     -6.411  0.7964E-03  0.1920E+01
     -6.307  0.7338E-02  0.1921E+01
     -6.203  0.2800E-01  0.1924E+01
     -6.098  0.4587E-01  0.1929E+01
     -5.994  0.3377E-01  0.1932E+01
     -5.890  0.5715E-01  0.1938E+01
     -5.786  0.1135E+00  0.1950E+01
     -5.682  0.6939E-01  0.1957E+01
     -5.577  0.7395E-01  0.1965E+01
     -5.473  0.9188E-01  0.1974E+01
     -5.369  0.1113E+00  0.1986E+01
     -5.265  0.1131E+00  0.1998E+01
     -5.161  0.1142E+00  0.2010E+01
     -5.056  0.1583E+00  0.2026E+01
     -4.952  0.1036E+00  0.2037E+01
     -4.848  0.1842E+00  0.2056E+01
     -4.744  0.9763E-01  0.2066E+01
     -4.640  0.6689E-01  0.2073E+01
     -4.535  0.1343E+00  0.2087E+01
     -4.431  0.1341E+00  0.2101E+01
     -4.327  0.2270E+00  0.2125E+01
     -4.223  0.3133E+00  0.2158E+01
     -4.119  0.4248E+00  0.2202E+01
     -4.014  0.2679E+00  0.2230E+01
     -3.910  0.1881E+00  0.2249E+01
     -3.806  0.8943E-01  0.2259E+01
     -3.702  0.1480E+00  0.2274E+01
     -3.598  0.1694E+00  0.2292E+01
     -3.493  0.1506E+00  0.2307E+01
     -3.389  0.9550E-01  0.2317E+01
     -3.285  0.5650E-01  0.2323E+01
     -3.181  0.7689E-01  0.2331E+01
     -3.077  0.1048E+00  0.2342E+01
     -2.972  0.5023E-01  0.2347E+01
     -2.868  0.1004E-02  0.2348E+01
     -2.764  0.7667E-02  0.2348E+01
     -2.660  0.1599E+00  0.2365E+01
     -2.556  0.8244E-01  0.2374E+01
     -2.451  0.3827E-01  0.2378E+01
     -2.347  0.1490E-01  0.2379E+01
     -2.243  0.4289E-01  0.2384E+01
     -2.139  0.3300E-01  0.2387E+01
     -2.035  0.5315E-01  0.2393E+01
     -1.930  0.1829E-01  0.2394E+01
     -1.826  0.3231E-01  0.2398E+01
     -1.722  0.9141E-02  0.2399E+01
     -1.618  0.6460E-02  0.2399E+01
     -1.514  0.4269E-02  0.2400E+01
     -1.409  0.1133E-02  0.2400E+01
     -1.305  0.8646E-06  0.2400E+01
     -1.201  0.2004E-12  0.2400E+01
     -1.097  0.0000E+00  0.2400E+01
     -0.993  0.0000E+00  0.2400E+01
     -0.889  0.0000E+00  0.2400E+01
     -0.784  0.0000E+00  0.2400E+01
     -0.680  0.0000E+00  0.2400E+01
     -0.576  0.0000E+00  0.2400E+01
     -0.472  0.0000E+00  0.2400E+01
     -0.368  0.0000E+00  0.2400E+01
     -0.263  0.0000E+00  0.2400E+01
     -0.159  0.0000E+00  0.2400E+01
     -0.055  0.0000E+00  0.2400E+01
      0.049  0.0000E+00  0.2400E+01
      0.153  0.4440E-18  0.2400E+01
      0.258  0.3912E-09  0.2400E+01
      0.362  0.8162E-04  0.2400E+01
      0.466  0.1136E-01  0.2401E+01
      0.570  0.4160E-01  0.2406E+01
      0.674  0.2024E+00  0.2427E+01
      0.779  0.2895E+00  0.2457E+01
      0.883  0.3036E+00  0.2488E+01
      0.987  0.3087E+00  0.2521E+01
      1.091  0.2424E+00  0.2546E+01
      1.195  0.1466E+00  0.2561E+01
      1.300  0.2199E+00  0.2584E+01
      1.404  0.3279E+00  0.2618E+01
      1.508  0.1516E+00  0.2634E+01
      1.612  0.1042E+00  0.2645E+01
      1.716  0.1648E+00  0.2662E+01
      1.821  0.3520E+00  0.2699E+01
      1.925  0.1016E+00  0.2709E+01
      2.029  0.1977E+00  0.2730E+01
      2.133  0.1991E+00  0.2751E+01
      2.237  0.2664E+00  0.2778E+01
      2.342  0.3945E+00  0.2819E+01
      2.446  0.2760E+00  0.2848E+01
      2.550  0.2787E+00  0.2877E+01
      2.654  0.1640E+00  0.2894E+01
      2.758  0.2451E+00  0.2920E+01
      2.863  0.2925E+00  0.2950E+01
      2.967  0.3754E+00  0.2990E+01
      3.071  0.3442E+00  0.3025E+01
      3.175  0.1333E+00  0.3039E+01
      3.279  0.2580E+00  0.3066E+01
      3.384  0.1924E+00  0.3086E+01
      3.488  0.1976E+00  0.3107E+01
      3.592  0.1583E+00  0.3123E+01
      3.696  0.2762E+00  0.3152E+01
      3.800  0.4429E+00  0.3198E+01
      3.905  0.3466E+00  0.3234E+01
      4.009  0.1565E+00  0.3251E+01
      4.113  0.2991E+00  0.3282E+01
      4.217  0.3613E+00  0.3319E+01
      4.321  0.1988E+00  0.3340E+01
      4.426  0.1921E+00  0.3360E+01
      4.530  0.3562E+00  0.3397E+01
      4.634  0.1904E+00  0.3417E+01
      4.738  0.1545E+00  0.3433E+01
      4.842  0.1599E+00  0.3450E+01
      4.947  0.1773E+00  0.3468E+01
      5.051  0.6837E-01  0.3475E+01
      5.155  0.3514E+00  0.3512E+01
      5.259  0.4645E+00  0.3560E+01
      5.363  0.4877E+00  0.3611E+01
      5.468  0.5271E+00  0.3666E+01
      5.572  0.2817E+00  0.3696E+01
      5.676  0.2587E+00  0.3723E+01
      5.780  0.2426E+00  0.3748E+01
      5.884  0.2067E+00  0.3769E+01
      5.989  0.2731E+00  0.3798E+01
      6.093  0.2493E+00  0.3824E+01
      6.197  0.8120E-01  0.3832E+01
      6.301  0.5475E-01  0.3838E+01
      6.405  0.1951E-01  0.3840E+01
      6.510  0.3277E-03  0.3840E+01
      6.614  0.1410E-05  0.3840E+01
      6.718  0.1317E-02  0.3840E+01
      6.822  0.2657E-02  0.3840E+01
      6.926  0.1310E-02  0.3841E+01
      7.031  0.6510E-02  0.3841E+01
      7.135  0.8360E-03  0.3841E+01
      7.239  0.7225E-02  0.3842E+01
      7.343  0.7940E-02  0.3843E+01
      7.447  0.4300E-02  0.3843E+01
      7.551  0.1263E-01  0.3845E+01
      7.656  0.3304E-01  0.3848E+01
      7.760  0.3882E-01  0.3852E+01
      7.864  0.4883E-01  0.3857E+01
      7.968  0.4616E-01  0.3862E+01
      8.072  0.1014E+00  0.3873E+01
      8.177  0.6591E-01  0.3879E+01
      8.281  0.1182E+00  0.3892E+01
      8.385  0.7326E-01  0.3899E+01
      8.489  0.7933E-01  0.3908E+01
      8.593  0.9657E-01  0.3918E+01
      8.698  0.1087E+00  0.3929E+01
      8.802  0.3377E+00  0.3964E+01
      8.906  0.2204E+00  0.3987E+01
      9.010  0.2498E+00  0.4013E+01
      9.114  0.1543E+00  0.4029E+01
      9.219  0.3206E+00  0.4063E+01
      9.323  0.1876E+00  0.4082E+01
      9.427  0.2091E+00  0.4104E+01
      9.531  0.2054E+00  0.4125E+01
      9.635  0.2741E+00  0.4154E+01
      9.740  0.3002E+00  0.4185E+01
      9.844  0.2268E+00  0.4209E+01
      9.948  0.2298E+00  0.4233E+01
     10.052  0.2689E+00  0.4261E+01
     10.156  0.3279E+00  0.4295E+01
     10.261  0.2502E+00  0.4321E+01
     10.365  0.2522E+00  0.4347E+01
     10.469  0.2022E+00  0.4369E+01
     10.573  0.2009E+00  0.4389E+01
     10.677  0.1391E+00  0.4404E+01
     10.782  0.2154E+00  0.4426E+01
     10.886  0.1759E+00  0.4445E+01
     10.990  0.2145E+00  0.4467E+01
     11.094  0.3556E+00  0.4504E+01
     11.198  0.3846E+00  0.4544E+01
     11.303  0.3138E+00  0.4577E+01
     11.407  0.3507E+00  0.4613E+01
     11.511  0.1726E+00  0.4631E+01
     11.615  0.5630E-01  0.4637E+01
     11.719  0.2569E-01  0.4640E+01
     11.824  0.5154E-03  0.4640E+01
     11.928  0.8384E-08  0.4640E+01
     12.032  0.3907E-16  0.4640E+01
     12.136  0.0000E+00  0.4640E+01
     12.240  0.0000E+00  0.4640E+01
     12.345  0.0000E+00  0.4640E+01
     12.449  0.0000E+00  0.4640E+01
     12.553  0.0000E+00  0.4640E+01
     12.657  0.0000E+00  0.4640E+01
     12.761  0.0000E+00  0.4640E+01
     12.866  0.0000E+00  0.4640E+01
     12.970  0.0000E+00  0.4640E+01
     13.074  0.0000E+00  0.4640E+01
