       N       E                     dE             d eps       ncg     rms          rms(c)
DAV:   1     0.563018202133E+04    0.56302E+04   -0.17539E+05  5568   0.197E+03
DAV:   2     0.957394791691E+03   -0.46728E+04   -0.45336E+04  5592   0.569E+02
DAV:   3    -0.112188169770E+03   -0.10696E+04   -0.99736E+03  6208   0.261E+02
DAV:   4    -0.237721443187E+03   -0.12553E+03   -0.12175E+03  6664   0.816E+01
DAV:   5    -0.243343439663E+03   -0.56220E+01   -0.55464E+01  6680   0.167E+01    0.342E+01
DAV:   6    -0.208955243068E+03    0.34388E+02   -0.14567E+02  7728   0.490E+01    0.136E+01
DAV:   7    -0.208806626846E+03    0.14862E+00   -0.29283E+01  6152   0.115E+01    0.810E+00
DAV:   8    -0.208946904270E+03   -0.14028E+00   -0.58780E+00  8032   0.489E+00    0.349E+00
DAV:   9    -0.208869524002E+03    0.77380E-01   -0.63201E-01  7480   0.253E+00    0.150E+00
DAV:  10    -0.208856433783E+03    0.13090E-01   -0.18240E-01  6928   0.138E+00    0.380E-01
DAV:  11    -0.208858828959E+03   -0.23952E-02   -0.23380E-02  7232   0.316E-01    0.341E-01
DAV:  12    -0.208859734489E+03   -0.90553E-03   -0.85100E-03  7776   0.204E-01    0.172E-01
DAV:  13    -0.208859712576E+03    0.21913E-04   -0.79945E-04  6432   0.947E-02    0.976E-02
DAV:  14    -0.208859648860E+03    0.63715E-04   -0.30099E-04  6896   0.371E-02    0.483E-02
DAV:  15    -0.208859629163E+03    0.19697E-04   -0.45099E-05  8304   0.133E-02    0.287E-02
DAV:  16    -0.208859626861E+03    0.23021E-05   -0.31933E-06  6496   0.503E-03    0.217E-02
DAV:  17    -0.208859619014E+03    0.78468E-05   -0.44986E-05  7600   0.150E-02    0.121E-02
DAV:  18    -0.208859618798E+03    0.21575E-06   -0.47617E-06  6176   0.507E-03    0.746E-03
DAV:  19    -0.208859618915E+03   -0.11709E-06   -0.71460E-07  5872   0.169E-03    0.362E-03
DAV:  20    -0.208859619044E+03   -0.12917E-06   -0.45417E-07  5744   0.143E-03    0.416E-04
DAV:  21    -0.208859619182E+03   -0.13772E-06   -0.28118E-08  4704   0.519E-04    0.317E-04
DAV:  22    -0.208859619204E+03   -0.22261E-07   -0.67447E-09  3392   0.290E-04    0.291E-04
DAV:  23    -0.208859619209E+03   -0.45993E-08   -0.29234E-09  3360   0.199E-04
   1 F= -.20885962E+03 E0= -.20885962E+03  d E =-.208860E+03
