 vasp.6.4.3 19Mar24 (build Apr 09 2025 20:43:19) complex                        
  
 executed on             LinuxIFC date 2025.04.13  18:46:37
 running   36 mpi-ranks, on    1 nodes
 distrk:  each k-point on   36 cores,    1 groups
 distr:  one band on NCORE=   9 cores,    4 groups


--------------------------------------------------------------------------------------------------------


 INCAR:
   PREC = Accurate
   IBRION = 2
   NSW = 100
   NELMIN = 5
   ISIF = 2
   ENCUT = 520
   EDIFF = 1.000000e-08
   EDIFFG = -1.000000e-5
   ISMEAR = 0
   SIGMA = 0.05
   IALGO = 38
   LREAL = .FALSE.
   ADDGRID = .TRUE.
   LWAVE = .FALSE.
   LCHARG = .FALSE.
   NCORE = 9

 POTCAR:    PAW_PBE Bi_d 06Sep2000                
 POTCAR:    PAW_PBE Se 06Sep2000                  
 POTCAR:    PAW_PBE O 08Apr2002                   
 POTCAR:    PAW_PBE S 06Sep2000                   
 POTCAR:    PAW_PBE Bi_d 06Sep2000                
   SHA256 =  572e7eac3f9482ff025db24f2820381a7a3856069fa85913dc654793f618f69a Bi_d/POTCAR           
   COPYR  = (c) Copyright 06Sep2000 Georg Kresse                                                    
   COPYR  = This file is part of the software VASP. Any use, copying, and all other rights are regul
   COPYR  = If you do not have a valid VASP license, you may not use, copy or distribute this file. 
   VRHFIN =Bi:                                                                                      
   LEXCH  = PE                                                                                      
   EATOM  =  1959.2045 eV,  143.9975 Ry                                                             
                                                                                                    
   TITEL  = PAW_PBE Bi_d 06Sep2000                                                                  
   LULTRA =        F    use ultrasoft PP ?                                                          
   IUNSCR =        1    unscreen: 0-lin 1-nonlin 2-no                                               
   RPACOR =    2.200    partial core radius                                                         
   POMASS =  208.980; ZVAL   =   15.000    mass and valenz                                          
   RCORE  =    2.500    outmost cutoff radius                                                       
   RWIGS  =    3.090; RWIGS  =    1.635    wigner-seitz radius (au A)                               
   ENMAX  =  242.839; ENMIN  =  182.129 eV                                                          
   ICORE  =        3    local potential                                                             
   LCOR   =        T    correct aug charges                                                         
   LPAW   =        T    paw PP                                                                      
   EAUG   =  442.899                                                                                
   DEXC   =    0.000                                                                                
   RMAX   =    2.551    core radius for proj-oper                                                   
   RAUG   =    1.300    factor for augmentation sphere                                              
   RDEP   =    2.650    radius for radial grids                                                     
   RDEPT  =    2.039    core radius for aug-charge                                                  
                                                                                                    
   Atomic configuration                                                                             
   16 entries                                                                                       
     n  l   j            E        occ.                                                              
     1  0  0.50    -90639.6581   2.0000                                                             
     2  0  0.50    -16282.4666   2.0000                                                             
     2  1  1.50    -13922.8286   6.0000                                                             
     3  0  0.50     -3930.4763   2.0000                                                             
     3  1  1.50     -3256.7013   6.0000                                                             
     3  2  2.50     -2581.6168  10.0000                                                             
     4  0  0.50      -902.2614   2.0000                                                             
     4  1  1.50      -681.5915   6.0000                                                             
     4  2  2.50      -429.8249  10.0000                                                             
     4  3  3.50      -152.6004  14.0000                                                             
     5  0  0.50      -157.7156   2.0000                                                             
     5  1  1.50       -95.8054   6.0000                                                             
     5  2  2.50       -27.0806  10.0000                                                             
     6  0  0.50       -14.4732   2.0000                                                             
     6  1  1.50        -4.5702   3.0000                                                             
     5  3  2.50        -2.7212   0.0000                                                             
   Description                                                                                      
     l       E           TYP  RCUT    TYP  RCUT                                                     
     2    -27.0805982     23  2.500                                                                 
     2     -1.3605826     23  2.500                                                                 
     0    -14.4732271     23  2.500                                                                 
     0      6.8029130     23  2.500                                                                 
     1     -4.5701651     23  2.500                                                                 
     1     13.6058260     23  2.500                                                                 
     3     -1.3605826      7  2.500                                                                 
  local pseudopotential read in
  partial core-charges read in
  partial kinetic energy density read in
  atomic valenz-charges read in
  non local Contribution for L=           2  read in
    real space projection operators read in
  non local Contribution for L=           2  read in
    real space projection operators read in
  non local Contribution for L=           0  read in
    real space projection operators read in
  non local Contribution for L=           0  read in
    real space projection operators read in
  non local Contribution for L=           1  read in
    real space projection operators read in
  non local Contribution for L=           1  read in
    real space projection operators read in
    PAW grid and wavefunctions read in
 
   number of l-projection  operators is LMAX  =           6
   number of lm-projection operators is LMMAX =          18
 
 POTCAR:    PAW_PBE Se 06Sep2000                  
   SHA256 =  eabb916e6b4c819dc065ce039373bc328651da483898f08fb9e49c498452bf12 Se/POTCAR             
   COPYR  = (c) Copyright 06Sep2000 Georg Kresse                                                    
   COPYR  = This file is part of the software VASP. Any use, copying, and all other rights are regul
   COPYR  = If you do not have a valid VASP license, you may not use, copy or distribute this file. 
   VRHFIN =Se: s2p4                                                                                 
   LEXCH  = PE                                                                                      
   EATOM  =   257.1286 eV,   18.8984 Ry                                                             
                                                                                                    
   TITEL  = PAW_PBE Se 06Sep2000                                                                    
   LULTRA =        F    use ultrasoft PP ?                                                          
   IUNSCR =        1    unscreen: 0-lin 1-nonlin 2-no                                               
   RPACOR =    1.900    partial core radius                                                         
   POMASS =   78.960; ZVAL   =    6.000    mass and valenz                                          
   RCORE  =    2.100    outmost cutoff radius                                                       
   RWIGS  =    2.200; RWIGS  =    1.164    wigner-seitz radius (au A)                               
   ENMAX  =  211.555; ENMIN  =  158.666 eV                                                          
   ICORE  =        3    local potential                                                             
   LCOR   =        T    correct aug charges                                                         
   LPAW   =        T    paw PP                                                                      
   EAUG   =  446.842                                                                                
   DEXC   =    0.000                                                                                
   RMAX   =    2.147    core radius for proj-oper                                                   
   RAUG   =    1.300    factor for augmentation sphere                                              
   RDEP   =    2.177    radius for radial grids                                                     
   RDEPT  =    1.928    core radius for aug-charge                                                  
                                                                                                    
   Atomic configuration                                                                             
   10 entries                                                                                       
     n  l   j            E        occ.                                                              
     1  0  0.50    -12503.4787   2.0000                                                             
     2  0  0.50     -1606.9547   2.0000                                                             
     2  1  1.50     -1413.3140   6.0000                                                             
     3  0  0.50      -213.4885   2.0000                                                             
     3  1  1.50      -152.9538   6.0000                                                             
     3  2  2.50       -53.1221  10.0000                                                             
     4  0  0.50       -17.2865   2.0000                                                             
     4  1  0.50        -6.5110   4.0000                                                             
     4  2  2.50        -6.8029   0.0000                                                             
     4  3  2.50        -6.8029   0.0000                                                             
   Description                                                                                      
     l       E           TYP  RCUT    TYP  RCUT                                                     
     0    -17.2865377     23  2.100                                                                 
     0    -15.3094411     23  2.100                                                                 
     1     -6.5110275     23  2.100                                                                 
     1     -0.0695192     23  2.100                                                                 
     2     -6.8029130     23  2.100                                                                 
     3     -1.3605826      7  2.100                                                                 
  local pseudopotential read in
  partial core-charges read in
  partial kinetic energy density read in
  atomic valenz-charges read in
  non local Contribution for L=           0  read in
    real space projection operators read in
  non local Contribution for L=           0  read in
    real space projection operators read in
  non local Contribution for L=           1  read in
    real space projection operators read in
  non local Contribution for L=           1  read in
    real space projection operators read in
  non local Contribution for L=           2  read in
    real space projection operators read in
    PAW grid and wavefunctions read in
 
   number of l-projection  operators is LMAX  =           5
   number of lm-projection operators is LMMAX =          13
 
 POTCAR:    PAW_PBE O 08Apr2002                   
   SHA256 =  818f92134a0a090dccd8ba1447fa70422a3b330e708bb4f08108d8ae51209ddf O/POTCAR              
   COPYR  = (c) Copyright 08Apr2002 Georg Kresse                                                    
   COPYR  = This file is part of the software VASP. Any use, copying, and all other rights are regul
   COPYR  = If you do not have a valid VASP license, you may not use, copy or distribute this file. 
   VRHFIN =O: s2p4                                                                                  
   LEXCH  = PE                                                                                      
   EATOM  =   432.3788 eV,   31.7789 Ry                                                             
                                                                                                    
   TITEL  = PAW_PBE O 08Apr2002                                                                     
   LULTRA =        F    use ultrasoft PP ?                                                          
   IUNSCR =        1    unscreen: 0-lin 1-nonlin 2-no                                               
   RPACOR =    1.200    partial core radius                                                         
   POMASS =   16.000; ZVAL   =    6.000    mass and valenz                                          
   RCORE  =    1.520    outmost cutoff radius                                                       
   RWIGS  =    1.550; RWIGS  =    0.820    wigner-seitz radius (au A)                               
   ENMAX  =  400.000; ENMIN  =  300.000 eV                                                          
   ICORE  =        2    local potential                                                             
   LCOR   =        T    correct aug charges                                                         
   LPAW   =        T    paw PP                                                                      
   EAUG   =  605.392                                                                                
   DEXC   =    0.000                                                                                
   RMAX   =    1.553    core radius for proj-oper                                                   
   RAUG   =    1.300    factor for augmentation sphere                                              
   RDEP   =    1.550    radius for radial grids                                                     
   RDEPT  =    1.329    core radius for aug-charge                                                  
                                                                                                    
   Atomic configuration                                                                             
    4 entries                                                                                       
     n  l   j            E        occ.                                                              
     1  0  0.50      -514.6923   2.0000                                                             
     2  0  0.50       -23.9615   2.0000                                                             
     2  1  0.50        -9.0305   4.0000                                                             
     3  2  1.50        -9.5241   0.0000                                                             
   Description                                                                                      
     l       E           TYP  RCUT    TYP  RCUT                                                     
     0    -23.9615318     23  1.200                                                                 
     0     -9.5240782     23  1.200                                                                 
     1     -9.0304911     23  1.520                                                                 
     1      8.1634956     23  1.520                                                                 
     2     -9.5240782      7  1.500                                                                 
  local pseudopotential read in
  partial core-charges read in
  partial kinetic energy density read in
  kinetic energy density of atom read in
  atomic valenz-charges read in
  non local Contribution for L=           0  read in
    real space projection operators read in
  non local Contribution for L=           0  read in
    real space projection operators read in
  non local Contribution for L=           1  read in
    real space projection operators read in
  non local Contribution for L=           1  read in
    real space projection operators read in
    PAW grid and wavefunctions read in
 
   number of l-projection  operators is LMAX  =           4
   number of lm-projection operators is LMMAX =           8
 
 POTCAR:    PAW_PBE S 06Sep2000                   
   SHA256 =  0fc7481fb0695f01bdc6462160264c5c84044ae9ec85a907d398b887a2bc3132 S/POTCAR              
   COPYR  = (c) Copyright 06Sep2000 Georg Kresse                                                    
   COPYR  = This file is part of the software VASP. Any use, copying, and all other rights are regul
   COPYR  = If you do not have a valid VASP license, you may not use, copy or distribute this file. 
   VRHFIN =S : s2p4                                                                                 
   LEXCH  = PE                                                                                      
   EATOM  =   276.8230 eV,   20.3459 Ry                                                             
                                                                                                    
   TITEL  = PAW_PBE S 06Sep2000                                                                     
   LULTRA =        F    use ultrasoft PP ?                                                          
   IUNSCR =        1    unscreen: 0-lin 1-nonlin 2-no                                               
   RPACOR =    1.500    partial core radius                                                         
   POMASS =   32.066; ZVAL   =    6.000    mass and valenz                                          
   RCORE  =    1.900    outmost cutoff radius                                                       
   RWIGS  =    2.200; RWIGS  =    1.164    wigner-seitz radius (au A)                               
   ENMAX  =  258.689; ENMIN  =  194.016 eV                                                          
   ICORE  =        2    local potential                                                             
   LCOR   =        T    correct aug charges                                                         
   LPAW   =        T    paw PP                                                                      
   EAUG   =  335.092                                                                                
   DEXC   =    0.000                                                                                
   RMAX   =    1.942    core radius for proj-oper                                                   
   RAUG   =    1.300    factor for augmentation sphere                                              
   RDEP   =    1.954    radius for radial grids                                                     
   RDEPT  =    1.744    core radius for aug-charge                                                  
                                                                                                    
   Atomic configuration                                                                             
    6 entries                                                                                       
     n  l   j            E        occ.                                                              
     1  0  0.50     -2405.8406   2.0000                                                             
     2  0  0.50      -211.7007   2.0000                                                             
     2  1  1.50      -156.4958   6.0000                                                             
     3  0  0.50       -17.2562   2.0000                                                             
     3  1  0.50        -7.0085   4.0000                                                             
     3  2  1.50        -6.8029   0.0000                                                             
   Description                                                                                      
     l       E           TYP  RCUT    TYP  RCUT                                                     
     0    -17.2561641     23  1.900                                                                 
     0    -15.8743224     23  1.900                                                                 
     1     -7.0085400     23  1.900                                                                 
     1     -2.7779785     23  1.900                                                                 
     2     -6.8029130     23  1.900                                                                 
  local pseudopotential read in
  partial core-charges read in
  partial kinetic energy density read in
  atomic valenz-charges read in
  non local Contribution for L=           0  read in
    real space projection operators read in
  non local Contribution for L=           0  read in
    real space projection operators read in
  non local Contribution for L=           1  read in
    real space projection operators read in
  non local Contribution for L=           1  read in
    real space projection operators read in
    PAW grid and wavefunctions read in
 
   number of l-projection  operators is LMAX  =           4
   number of lm-projection operators is LMMAX =           8
 
 -----------------------------------------------------------------------------
|                                                                             |
|               ----> ADVICE to this user running VASP <----                  |
|                                                                             |
|     You have a (more or less) 'large supercell' and for larger cells it     |
|     might be more efficient to use real-space projection operators.         |
|     Therefore, try LREAL= Auto in the INCAR file.                           |
|     Mind: For very accurate calculation, you might also keep the            |
|     reciprocal projection scheme (i.e. LREAL=.FALSE.).                      |
|                                                                             |
 -----------------------------------------------------------------------------

  PAW_PBE Bi_d 06Sep2000                :
 energy of atom  1       EATOM=-1959.2045
 kinetic energy error for atom=    0.0040 (will be added to EATOM!!)
  PAW_PBE Se 06Sep2000                  :
 energy of atom  2       EATOM= -257.1286
 kinetic energy error for atom=    0.0007 (will be added to EATOM!!)
  PAW_PBE O 08Apr2002                   :
 energy of atom  3       EATOM= -432.3788
 kinetic energy error for atom=    0.0208 (will be added to EATOM!!)
  PAW_PBE S 06Sep2000                   :
 energy of atom  4       EATOM= -276.8230
 kinetic energy error for atom=    0.0016 (will be added to EATOM!!)
 
 
 POSCAR: generated by phonopy
  positions in direct lattice
  velocities in cartesian coordinates


 exchange-correlation table for PE
   RHO(1)=    0.500       N(1)  =     2000
   RHO(2)=  100.500       N(2)  =     4000
 


--------------------------------------------------------------------------------------------------------


 ion  position               nearest neighbor table
   1  0.249  0.249  0.854-  24 2.34  28 2.34  25 2.34  30 2.34  40 3.30  18 3.31  17 3.31  19 3.32
                            13 3.61   5 3.77   7 3.77   6 3.77   8 3.77   3 3.90   2 3.90
   2  0.751  0.249  0.854-  24 2.34  29 2.34  25 2.34  31 2.34  40 3.30  18 3.31  17 3.31  19 3.32
                            14 3.61   5 3.77   7 3.77   6 3.77   8 3.77   4 3.90   1 3.90
   3  0.249  0.751  0.854-  26 2.34  28 2.34  27 2.34  30 2.34  40 3.30  18 3.31  17 3.31  19 3.32
                            15 3.61   5 3.77   7 3.77   6 3.77   8 3.77   4 3.90   1 3.90
   4  0.751  0.751  0.854-  26 2.34  29 2.34  27 2.34  31 2.34  40 3.30  18 3.31  17 3.31  19 3.32
                            16 3.61   5 3.77   7 3.77   6 3.77   8 3.77   3 3.90   2 3.90
   5  0.000  0.000  0.647-  24 2.34  26 2.34  28 2.34  29 2.34  20 3.31  21 3.31  22 3.31  23 3.31
                             9 3.63   2 3.77   3 3.77   4 3.77   1 3.77   7 3.92   6 3.92   7 3.92
   6  0.500  0.000  0.648-  28 2.34  29 2.34  25 2.34  27 2.34  20 3.32  21 3.32  22 3.32  23 3.32
                            10 3.65   2 3.77   3 3.77   4 3.77   1 3.77   5 3.92   5 3.92   8 3.92
   7  0.000  0.500  0.648-  24 2.34  26 2.34  30 2.34  31 2.34  20 3.32  21 3.32  22 3.32  23 3.32
                            11 3.65   2 3.77   3 3.77   4 3.77   1 3.77   5 3.92   5 3.92   8 3.92
   8  0.500  0.500  0.648-  25 2.34  27 2.34  30 2.34  31 2.34  20 3.32  21 3.32  22 3.32  23 3.32
                            12 3.67   2 3.77   3 3.77   4 3.77   1 3.77   7 3.92   6 3.92   6 3.92
   9  0.000  0.000  0.353-  32 2.34  33 2.34  36 2.34  38 2.34  20 3.31  21 3.31  22 3.31  23 3.31
                             5 3.63  13 3.77  14 3.77  15 3.77  16 3.77  10 3.92  11 3.92  11 3.92
  10  0.500  0.000  0.352-  32 2.34  33 2.34  37 2.34  39 2.34  20 3.32  21 3.32  22 3.32  23 3.32
                             6 3.65  13 3.77  14 3.77  15 3.77  16 3.77   9 3.92   9 3.92  12 3.92
  11  0.000  0.500  0.352-  36 2.34  38 2.34  34 2.34  35 2.34  20 3.32  21 3.32  22 3.32  23 3.32
                             7 3.65  13 3.77  14 3.77  15 3.77  16 3.77   9 3.92   9 3.92  12 3.92
  12  0.500  0.500  0.352-  34 2.34  35 2.34  37 2.34  39 2.34  20 3.32  21 3.32  22 3.32  23 3.32
                             8 3.67  13 3.77  14 3.77  15 3.77  16 3.77  10 3.92  11 3.92  10 3.92
  13  0.249  0.249  0.146-  32 2.34  36 2.34  34 2.34  37 2.34  40 3.30  18 3.31  17 3.31  19 3.32
                             1 3.61   9 3.77  11 3.77  10 3.77  12 3.77  14 3.90  15 3.90
  14  0.751  0.249  0.146-  33 2.34  36 2.34  35 2.34  37 2.34  40 3.30  18 3.31  17 3.31  19 3.32
                             2 3.61   9 3.77  11 3.77  10 3.77  12 3.77  13 3.90  16 3.90
  15  0.249  0.751  0.146-  32 2.34  38 2.34  34 2.34  39 2.34  40 3.30  18 3.31  17 3.31  19 3.32
                             3 3.61   9 3.77  11 3.77  10 3.77  12 3.77  13 3.90  16 3.90
  16  0.751  0.751  0.146-  33 2.34  38 2.34  35 2.34  39 2.34  40 3.30  18 3.31  17 3.31  19 3.32
                             4 3.61   9 3.77  11 3.77  10 3.77  12 3.77  14 3.90  15 3.90
  17  0.500  0.000  0.000-   1 3.31   2 3.31   3 3.31   4 3.31  13 3.31  14 3.31  15 3.31  16 3.31

  18  0.000  0.500  0.000-   1 3.31   2 3.31   3 3.31   4 3.31  13 3.31  14 3.31  15 3.31  16 3.31

  19  0.500  0.500  0.000-   1 3.32   2 3.32   3 3.32   4 3.32  13 3.32  14 3.32  15 3.32  16 3.32

  20  0.250  0.250  0.500-   5 3.31   9 3.31   7 3.32   6 3.32  10 3.32  11 3.32   8 3.32  12 3.32

  21  0.750  0.250  0.500-   5 3.31   9 3.31   7 3.32   6 3.32  10 3.32  11 3.32   8 3.32  12 3.32

  22  0.250  0.750  0.500-   5 3.31   9 3.31   7 3.32   6 3.32  10 3.32  11 3.32   8 3.32  12 3.32

  23  0.750  0.750  0.500-   5 3.31   9 3.31   7 3.32   6 3.32  10 3.32  11 3.32   8 3.32  12 3.32

  24  0.000  0.250  0.750-   1 2.34   2 2.34   5 2.34   7 2.34
  25  0.500  0.250  0.751-   8 2.34   6 2.34   1 2.34   2 2.34
  26  0.000  0.750  0.750-   3 2.34   4 2.34   5 2.34   7 2.34
  27  0.500  0.750  0.751-   8 2.34   6 2.34   3 2.34   4 2.34
  28  0.250  0.000  0.750-   1 2.34   3 2.34   5 2.34   6 2.34
  29  0.750  0.000  0.750-   2 2.34   4 2.34   5 2.34   6 2.34
  30  0.250  0.500  0.751-   8 2.34   7 2.34   1 2.34   3 2.34
  31  0.750  0.500  0.751-   8 2.34   7 2.34   2 2.34   4 2.34
  32  0.250  0.000  0.250-  13 2.34  15 2.34   9 2.34  10 2.34
  33  0.750  0.000  0.250-  14 2.34  16 2.34   9 2.34  10 2.34
  34  0.250  0.500  0.249-  12 2.34  11 2.34  13 2.34  15 2.34
  35  0.750  0.500  0.249-  12 2.34  11 2.34  14 2.34  16 2.34
  36  0.000  0.250  0.250-  13 2.34  14 2.34   9 2.34  11 2.34
  37  0.500  0.250  0.249-  12 2.34  10 2.34  13 2.34  14 2.34
  38  0.000  0.750  0.250-  15 2.34  16 2.34   9 2.34  11 2.34
  39  0.500  0.750  0.249-  12 2.34  10 2.34  15 2.34  16 2.34
  40  0.000  0.000  0.000-   1 3.30   2 3.30   3 3.30   4 3.30  13 3.30  14 3.30  15 3.30  16 3.30

 
  LATTYP: Found a simple tetragonal cell.
 ALAT       =     7.8401590487
 C/A-ratio  =     1.5781187256
  
  Lattice vectors:
  
 A1 = (   7.8401590487,   0.0000000000,   0.0000000000)
 A2 = (   0.0000000000,   7.8401590487,   0.0000000000)
 A3 = (   0.0000000000,   0.0000000000,  12.3727018064)


Analysis of symmetry for initial positions (statically):
=====================================================================
 Subroutine PRICEL returns:
 Original cell was already a primitive cell.
 

 Routine SETGRP: Setting up the symmetry group for a 
 simple tetragonal supercell.


 Subroutine GETGRP returns: Found 16 space group operations
 (whereof 16 operations were pure point group operations)
 out of a pool of 16 trial point group operations.


The static configuration has the point symmetry D_4h.


Analysis of symmetry for dynamics (positions and initial velocities):
=====================================================================
 Subroutine PRICEL returns:
 Original cell was already a primitive cell.
 

 Routine SETGRP: Setting up the symmetry group for a 
 simple tetragonal supercell.


 Subroutine GETGRP returns: Found 16 space group operations
 (whereof 16 operations were pure point group operations)
 out of a pool of 16 trial point group operations.


The dynamic configuration has the point symmetry D_4h.


 Subroutine INISYM returns: Found 16 space group operations
 (whereof 16 operations are pure point group operations),
 and found     1 'primitive' translations


----------------------------------------------------------------------------------------

                                     Primitive cell                                     

  volume of cell :     760.5264

  direct lattice vectors                    reciprocal lattice vectors
     7.840159049  0.000000000  0.000000000     0.127548433  0.000000000  0.000000000
     0.000000000  7.840159049  0.000000000     0.000000000  0.127548433  0.000000000
     0.000000000  0.000000000 12.372701806     0.000000000  0.000000000  0.080823091

  length of vectors
     7.840159049  7.840159049 12.372701806     0.127548433  0.127548433  0.080823091

  position of ions in fractional coordinates (direct lattice)
     0.248911050  0.248911050  0.854281911
     0.751088950  0.248911050  0.854281911
     0.248911050  0.751088950  0.854281911
     0.751088950  0.751088950  0.854281911
     0.000000000  0.000000000  0.646717676
     0.500000000  0.000000000  0.647515891
     0.000000000  0.500000000  0.647515891
     0.500000000  0.500000000  0.648417280
     0.000000000  0.000000000  0.353282324
     0.500000000  0.000000000  0.352484109
     0.000000000  0.500000000  0.352484109
     0.500000000  0.500000000  0.351582720
     0.248911050  0.248911050  0.145718089
     0.751088950  0.248911050  0.145718089
     0.248911050  0.751088950  0.145718089
     0.751088950  0.751088950  0.145718089
     0.500000000  0.000000000  0.000000000
     0.000000000  0.500000000  0.000000000
     0.500000000  0.500000000  0.000000000
     0.250137567  0.250137567  0.500000000
     0.749862433  0.250137567  0.500000000
     0.250137567  0.749862433  0.500000000
     0.749862433  0.749862433  0.500000000
     0.000000000  0.249535211  0.750473553
     0.500000000  0.249670222  0.751393783
     0.000000000  0.750464789  0.750473553
     0.500000000  0.750329778  0.751393783
     0.249535211  0.000000000  0.750473553
     0.750464789  0.000000000  0.750473553
     0.249670222  0.500000000  0.751393783
     0.750329778  0.500000000  0.751393783
     0.249535211  0.000000000  0.249526447
     0.750464789  0.000000000  0.249526447
     0.249670222  0.500000000  0.248606217
     0.750329778  0.500000000  0.248606217
     0.000000000  0.249535211  0.249526447
     0.500000000  0.249670222  0.248606217
     0.000000000  0.750464789  0.249526447
     0.500000000  0.750329778  0.248606217
     0.000000000  0.000000000  0.000000000

  ion indices of the primitive-cell ions
   primitive index   ion index
                 1           1
                 2           2
                 3           3
                 4           4
                 5           5
                 6           6
                 7           7
                 8           8
                 9           9
                10          10
                11          11
                12          12
                13          13
                14          14
                15          15
                16          16
                17          17
                18          18
                19          19
                20          20
                21          21
                22          22
                23          23
                24          24
                25          25
                26          26
                27          27
                28          28
                29          29
                30          30
                31          31
                32          32
                33          33
                34          34
                35          35
                36          36
                37          37
                38          38
                39          39
                40          40

----------------------------------------------------------------------------------------

 
 
 KPOINTS: K-Spacing Value to Generate K-Mesh: 0.03

Automatic generation of k-mesh.
 Grid dimensions read from file:
 generate k-points for:    4    4    3

 Generating k-lattice:

  Cartesian coordinates                     Fractional coordinates (reciprocal lattice)
     0.031887108  0.000000000  0.000000000     0.250000000  0.000000000  0.000000000
     0.000000000  0.031887108  0.000000000     0.000000000  0.250000000  0.000000000
     0.000000000  0.000000000  0.026941030     0.000000000  0.000000000  0.333333333

  Length of vectors
     0.031887108  0.031887108  0.026941030

  Shift w.r.t. Gamma in fractional coordinates (k-lattice)
     0.000000000  0.000000000  0.000000000

 
 Subroutine IBZKPT returns following result:
 ===========================================
 
 Found     12 irreducible k-points:
 
 Following reciprocal coordinates:
            Coordinates               Weight
  0.000000  0.000000  0.000000      1.000000
  0.250000  0.000000  0.000000      4.000000
  0.500000  0.000000  0.000000      2.000000
  0.250000  0.250000  0.000000      4.000000
  0.500000  0.250000  0.000000      4.000000
  0.500000  0.500000  0.000000      1.000000
  0.000000  0.000000  0.333333      2.000000
  0.250000  0.000000  0.333333      8.000000
  0.500000  0.000000  0.333333      4.000000
  0.250000  0.250000  0.333333      8.000000
  0.500000  0.250000  0.333333      8.000000
  0.500000  0.500000  0.333333      2.000000
 
 Following cartesian coordinates:
            Coordinates               Weight
  0.000000  0.000000  0.000000      1.000000
  0.031887  0.000000  0.000000      4.000000
  0.063774  0.000000  0.000000      2.000000
  0.031887  0.031887  0.000000      4.000000
  0.063774  0.031887  0.000000      4.000000
  0.063774  0.063774  0.000000      1.000000
  0.000000  0.000000  0.026941      2.000000
  0.031887  0.000000  0.026941      8.000000
  0.063774  0.000000  0.026941      4.000000
  0.031887  0.031887  0.026941      8.000000
  0.063774  0.031887  0.026941      8.000000
  0.063774  0.063774  0.026941      2.000000
 


--------------------------------------------------------------------------------------------------------




 Dimension of arrays:
   k-points           NKPTS =     12   k-points in BZ     NKDIM =     12   number of bands    NBANDS=    232
   number of dos      NEDOS =    301   number of ions     NIONS =     40
   non local maximal  LDIM  =      6   non local SUM 2l+1 LMDIM =     18
   total plane-waves  NPLWV = 345600
   max r-space proj   IRMAX =      1   max aug-charges    IRDMAX= 160842
   dimension x,y,z NGX =    60 NGY =   60 NGZ =   96
   dimension x,y,z NGXF=   120 NGYF=  120 NGZF=  192
   support grid    NGXF=   240 NGYF=  240 NGZF=  384
   ions per type =              16   7  16   1
   NGX,Y,Z   is equivalent  to a cutoff of  12.72, 12.72, 12.90 a.u.
   NGXF,Y,Z  is equivalent  to a cutoff of  25.45, 25.45, 25.80 a.u.

 SYSTEM =  unknown system                          
 POSCAR =  generated by phonopy                    

 Startparameter for this run:
   NWRITE =      2    write-flag & timer
   PREC   = accura    normal or accurate (medium, high low for compatibility)
   ISTART =      0    job   : 0-new  1-cont  2-samecut
   ICHARG =      2    charge: 1-file 2-atom 10-const
   ISPIN  =      1    spin polarized calculation?
   LNONCOLLINEAR =      F non collinear calculations
   LSORBIT =      F    spin-orbit coupling
   INIWAV =      1    electr: 0-lowe 1-rand  2-diag
   LASPH  =      F    aspherical Exc in radial PAW
 Electronic Relaxation 1
   ENCUT  =  520.0 eV  38.22 Ry    6.18 a.u.  14.58 14.58 23.01*2*pi/ulx,y,z
   ENINI  =  520.0     initial cutoff
   ENAUG  =  605.4 eV  augmentation charge cutoff
   NELM   =     60;   NELMIN=  5; NELMDL= -5     # of ELM steps 
   EDIFF  = 0.1E-07   stopping-criterion for ELM
   LREAL  =      F    real-space projection
   NLSPLINE    = F    spline interpolate recip. space projectors
   LCOMPAT=      F    compatible to vasp.4.4
   GGA_COMPAT  = T    GGA compatible to vasp.4.4-vasp.4.6
   LMAXPAW     = -100 max onsite density
   LMAXMIX     =    2 max onsite mixed and CHGCAR
   VOSKOWN=      0    Vosko Wilk Nusair interpolation
   ROPT   =    0.00000   0.00000   0.00000   0.00000
 Ionic relaxation
   EDIFFG = -.1E-04   stopping-criterion for IOM
   NSW    =    100    number of steps for IOM
   NBLOCK =      1;   KBLOCK =    100    inner block; outer block 
   IBRION =      2    ionic relax: 0-MD 1-quasi-New 2-CG
   NFREE  =      1    steps in history (QN), initial steepest desc. (CG)
   ISIF   =      2    stress and relaxation
   IWAVPR =     11    prediction:  0-non 1-charg 2-wave 3-comb
   ISYM   =      2    0-nonsym 1-usesym 2-fastsym
   LCORR  =      T    Harris-Foulkes like correction to forces

   POTIM  = 0.5000    time-step for ionic-motion
   TEIN   =    0.0    initial temperature
   TEBEG  =    0.0;   TEEND  =   0.0 temperature during run
   SMASS  =  -3.00    Nose mass-parameter (am)
   estimated Nose-frequenzy (Omega)   =  0.10E-29 period in steps = 0.13E+47 mass=  -0.140E-26a.u.
   SCALEE = 1.0000    scale energy and forces
   NPACO  =    256;   APACO  = 10.0  distance and # of slots for P.C.
   PSTRESS=    0.0 pullay stress

  Mass of Ions in am
   POMASS = 208.98 78.96 16.00 32.07
  Ionic Valenz
   ZVAL   =  15.00  6.00  6.00  6.00
  Atomic Wigner-Seitz radii
   RWIGS  =  -1.00 -1.00 -1.00 -1.00
  virtual crystal weights 
   VCA    =   1.00  1.00  1.00  1.00
   NELECT =     384.0000    total number of electrons
   NUPDOWN=      -1.0000    fix difference up-down

 DOS related values:
   EMIN   =  10.00;   EMAX   =-10.00  energy-range for DOS
   EFERMI =   0.00;   METHOD = LEGACY      
   ISMEAR =     0;   SIGMA  =   0.05  broadening in eV -4-tet -1-fermi 0-gaus

 Electronic relaxation 2 (details)
   IALGO  =     38    algorithm
   LDIAG  =      T    sub-space diagonalisation (order eigenvalues)
   LSUBROT=      F    optimize rotation matrix (better conditioning)
   TURBO    =      0    0=normal 1=particle mesh
   IRESTART =      0    0=no restart 2=restart with 2 vectors
   NREBOOT  =      0    no. of reboots
   NMIN     =      0    reboot dimension
   EREF     =   0.00    reference energy to select bands
   IMIX   =      4    mixing-type and parameters
     AMIX     =   0.40;   BMIX     =  1.00
     AMIX_MAG =   1.60;   BMIX_MAG =  1.00
     AMIN     =   0.10
     WC   =   100.;   INIMIX=   1;  MIXPRE=   1;  MAXMIX= -45

 Intra band minimization:
   WEIMIN = 0.0010     energy-eigenvalue tresh-hold
   EBREAK =  0.11E-10  absolut break condition
   DEPER  =   0.30     relativ break condition  

   TIME   =   0.40     timestep for ELM

  volume/ion in A,a.u.               =      19.01       128.31
  Fermi-wavevector in a.u.,A,eV,Ry     =   1.303608  2.463463 23.121670  1.699395
  Thomas-Fermi vector in A             =   2.434599
 
 Write flags
   LWAVE        =      F    write WAVECAR
   LDOWNSAMPLE  =      F    k-point downsampling of WAVECAR
   LCHARG       =      F    write CHGCAR
   LVTOT        =      F    write LOCPOT, total local potential
   LVHAR        =      F    write LOCPOT, Hartree potential only
   WRT_POTENTIAL= false  ! write potential to hdf5 file
   LELF         =      F    write electronic localiz. function (ELF)
   LORBIT       =      0    0 simple, 1 ext, 2 COOP (PROOUT), +10 PAW based schemes


 Dipole corrections
   LMONO      =      F    monopole corrections only (constant potential shift)
   LDIPOL     =      F    correct potential (dipole corrections)
   IDIPOL     =      0    1-x, 2-y, 3-z, 4-all directions 
   EPSILON    =  1.0000000 bulk dielectric constant
   LVACPOTAV  =      F  vacuum potentials using an averaging scheme for the charge density
   VACPOTFLAT =  0.1000000 required flatness to determine vacuum potential
 Exchange correlation treatment:
   GGA     = PE    functional components
   XC_C    = 1    coefficients multiplying the functional components
   LIBXC   =     F    Libxc                    
   VOSKOWN =     0    Vosko Wilk Nusair interpolation
   LHFCALC =     F    Hartree Fock is set to
   LHFONE  =     F    Hartree Fock one center treatment
   AEXX    =    0.0000 exact exchange contribution

 Parameters of functionals:
   PE:
     No parameter
 
 Van der Waals corrections
   IVDW    =     0    specifies the selected vdW correction

 Linear response parameters
   LEPSILON=     F    determine dielectric tensor
   LRPA    =     F    only Hartree local field effects (RPA)
   LNABLA  =     F    use nabla operator in PAW spheres
   LVEL    =     F    velocity operator in full k-point grid
   CSHIFT  =0.1000    complex shift for real part using Kramers Kronig
   OMEGAMAX=  -1.0    maximum frequency
   DEG_THRESHOLD= 0.2000000E-02 threshold for treating states as degnerate
   RTIME   =   -0.100 relaxation time in fs
  (WPLASMAI=    0.000 imaginary part of plasma frequency in eV, 0.658/RTIME)
   DFIELD  = 0.0000000 0.0000000 0.0000000 field for delta impulse in time
 
  Optional k-point grid parameters
   LKPOINTS_OPT  =     F    use optional k-point grid
   KPOINTS_OPT_MODE=     1    mode for optional k-point grid
 
 Orbital magnetization related:
   ORBITALMAG=     F  switch on orbital magnetization
   LCHIMAG   =     F  perturbation theory with respect to B field
   DQ        =  0.001000  dq finite difference perturbation B field
   LLRAUG    =     F  two centre corrections for induced B field
   LBONE     =     F  B-component reconstruction in AE one-centre
   LVGVCALC  =     T  calculate vGv susceptibility
   LVGVAPPL  =     F  apply vGv susceptibility instead of pGv for G=0

 Random number generation:
   RANDOM_GENERATOR = DEFAULT
   PCG_SEED         = not used


--------------------------------------------------------------------------------------------------------


 conjugate gradient relaxation of ions
 charge density and potential will be updated during run
 non-spin polarized calculation
 Variant of blocked Davidson
 Davidson routine will perform the subspace rotation
 perform sub-space diagonalisation
    after iterative eigenvector-optimisation
 modified Broyden-mixing scheme, WC =      100.0
 initial mixing is a Kerker type mixing with AMIX =  0.4000 and BMIX =      1.0000
 Hartree-type preconditioning will be used
 using additional bands           40
 reciprocal scheme for non local part
 use partial core corrections
 calculate Harris-corrections to forces 
   (improved forces if not selfconsistent)
 use gradient corrections 
 use of overlap-Matrix (Vanderbilt PP)
 Gauss-broadening in eV      SIGMA  =   0.05


--------------------------------------------------------------------------------------------------------


  energy-cutoff  :      520.00
  volume of cell :      760.53
      direct lattice vectors                 reciprocal lattice vectors
     7.840159049  0.000000000  0.000000000     0.127548433  0.000000000  0.000000000
     0.000000000  7.840159049  0.000000000     0.000000000  0.127548433  0.000000000
     0.000000000  0.000000000 12.372701806     0.000000000  0.000000000  0.080823091

  length of vectors
     7.840159049  7.840159049 12.372701806     0.127548433  0.127548433  0.080823091


 
 k-points in units of 2pi/SCALE and weight: K-Spacing Value to Generate K-Mesh: 0.03
   0.00000000  0.00000000  0.00000000       0.021
   0.03188711  0.00000000  0.00000000       0.083
   0.06377422  0.00000000  0.00000000       0.042
   0.03188711  0.03188711  0.00000000       0.083
   0.06377422  0.03188711  0.00000000       0.083
   0.06377422  0.06377422  0.00000000       0.021
   0.00000000  0.00000000  0.02694103       0.042
   0.03188711  0.00000000  0.02694103       0.167
   0.06377422  0.00000000  0.02694103       0.083
   0.03188711  0.03188711  0.02694103       0.167
   0.06377422  0.03188711  0.02694103       0.167
   0.06377422  0.06377422  0.02694103       0.042
 
 k-points in reciprocal lattice and weights: K-Spacing Value to Generate K-Mesh: 0.03
   0.00000000  0.00000000  0.00000000       0.021
   0.25000000  0.00000000  0.00000000       0.083
   0.50000000  0.00000000  0.00000000       0.042
   0.25000000  0.25000000  0.00000000       0.083
   0.50000000  0.25000000  0.00000000       0.083
   0.50000000  0.50000000  0.00000000       0.021
   0.00000000  0.00000000  0.33333333       0.042
   0.25000000  0.00000000  0.33333333       0.167
   0.50000000  0.00000000  0.33333333       0.083
   0.25000000  0.25000000  0.33333333       0.167
   0.50000000  0.25000000  0.33333333       0.167
   0.50000000  0.50000000  0.33333333       0.042
 
 position of ions in fractional coordinates (direct lattice) 
   0.24891105  0.24891105  0.85428191
   0.75108895  0.24891105  0.85428191
   0.24891105  0.75108895  0.85428191
   0.75108895  0.75108895  0.85428191
   0.00000000  0.00000000  0.64671768
   0.50000000  0.00000000  0.64751589
   0.00000000  0.50000000  0.64751589
   0.50000000  0.50000000  0.64841728
   0.00000000  0.00000000  0.35328232
   0.50000000  0.00000000  0.35248411
   0.00000000  0.50000000  0.35248411
   0.50000000  0.50000000  0.35158272
   0.24891105  0.24891105  0.14571809
   0.75108895  0.24891105  0.14571809
   0.24891105  0.75108895  0.14571809
   0.75108895  0.75108895  0.14571809
   0.50000000  0.00000000  0.00000000
   0.00000000  0.50000000  0.00000000
   0.50000000  0.50000000  0.00000000
   0.25013757  0.25013757  0.50000000
   0.74986243  0.25013757  0.50000000
   0.25013757  0.74986243  0.50000000
   0.74986243  0.74986243  0.50000000
   0.00000000  0.24953521  0.75047355
   0.50000000  0.24967022  0.75139378
   0.00000000  0.75046479  0.75047355
   0.50000000  0.75032978  0.75139378
   0.24953521  0.00000000  0.75047355
   0.75046479  0.00000000  0.75047355
   0.24967022  0.50000000  0.75139378
   0.75032978  0.50000000  0.75139378
   0.24953521  0.00000000  0.24952645
   0.75046479  0.00000000  0.24952645
   0.24967022  0.50000000  0.24860622
   0.75032978  0.50000000  0.24860622
   0.00000000  0.24953521  0.24952645
   0.50000000  0.24967022  0.24860622
   0.00000000  0.75046479  0.24952645
   0.50000000  0.75032978  0.24860622
   0.00000000  0.00000000  0.00000000
 
 position of ions in cartesian coordinates  (Angst):
   1.95150222  1.95150222 10.56977534
   5.88865683  1.95150222 10.56977534
   1.95150222  5.88865683 10.56977534
   5.88865683  5.88865683 10.56977534
   0.00000000  0.00000000  8.00164495
   3.92007952  0.00000000  8.01152104
   0.00000000  3.92007952  8.01152104
   3.92007952  3.92007952  8.02267366
   0.00000000  0.00000000  4.37105685
   3.92007952  0.00000000  4.36118077
   0.00000000  3.92007952  4.36118077
   3.92007952  3.92007952  4.35002815
   1.95150222  1.95150222  1.80292647
   5.88865683  1.95150222  1.80292647
   1.95150222  5.88865683  1.80292647
   5.88865683  5.88865683  1.80292647
   3.92007952  0.00000000  0.00000000
   0.00000000  3.92007952  0.00000000
   3.92007952  3.92007952  0.00000000
   1.96111831  1.96111831  6.18635090
   5.87904074  1.96111831  6.18635090
   1.96111831  5.87904074  6.18635090
   5.87904074  5.87904074  6.18635090
   0.00000000  1.95639574  9.28538548
   3.92007952  1.95745425  9.29677121
   0.00000000  5.88376330  9.28538548
   3.92007952  5.88270480  9.29677121
   1.95639574  0.00000000  9.28538548
   5.88376330  0.00000000  9.28538548
   1.95745425  3.92007952  9.29677121
   5.88270480  3.92007952  9.29677121
   1.95639574  0.00000000  3.08731633
   5.88376330  0.00000000  3.08731633
   1.95745425  3.92007952  3.07593059
   5.88270480  3.92007952  3.07593059
   0.00000000  1.95639574  3.08731633
   3.92007952  1.95745425  3.07593059
   0.00000000  5.88376330  3.08731633
   3.92007952  5.88270480  3.07593059
   0.00000000  0.00000000  0.00000000
 


--------------------------------------------------------------------------------------------------------


 k-point     1 :   0.0000 0.0000 0.0000  plane waves:   20487
 k-point     2 :   0.2500 0.0000 0.0000  plane waves:   20515
 k-point     3 :   0.5000 0.0000 0.0000  plane waves:   20478
 k-point     4 :   0.2500 0.2500 0.0000  plane waves:   20477
 k-point     5 :   0.5000 0.2500 0.0000  plane waves:   20476
 k-point     6 :   0.5000 0.5000 0.0000  plane waves:   20384
 k-point     7 :   0.0000 0.0000 0.3333  plane waves:   20522
 k-point     8 :   0.2500 0.0000 0.3333  plane waves:   20483
 k-point     9 :   0.5000 0.0000 0.3333  plane waves:   20472
 k-point    10 :   0.2500 0.2500 0.3333  plane waves:   20491
 k-point    11 :   0.5000 0.2500 0.3333  plane waves:   20484
 k-point    12 :   0.5000 0.5000 0.3333  plane waves:   20408

 maximum and minimum number of plane-waves per node :      2299     2246

 maximum number of plane-waves:     20522
 maximum index in each direction: 
   IXMAX=   14   IYMAX=   14   IZMAX=   23
   IXMIN=  -15   IYMIN=  -15   IZMIN=  -23


 parallel 3D FFT for wavefunctions:
    minimum data exchange during FFTs selected (reduces bandwidth)
 parallel 3D FFT for charge:
    minimum data exchange during FFTs selected (reduces bandwidth)


 total amount of memory used by VASP MPI-rank0    95129. kBytes
=======================================================================

   base      :      30000. kBytes
   nonl-proj :      17369. kBytes
   fftplans  :      13005. kBytes
   grid      :       8308. kBytes
   one-center:         77. kBytes
   wavefun   :      26370. kBytes
 
     INWAV:  cpu time      0.0000: real time      0.0000
 Broyden mixing: mesh for mixing (old mesh)
   NGX = 29   NGY = 29   NGZ = 47
  (NGX  =120   NGY  =120   NGZ  =192)
  gives a total of  39527 points

 initial charge density was supplied:
 charge density of overlapping atoms calculated
 number of electron     384.0000000 magnetization 
 keeping initial charge density in first step


--------------------------------------------------------------------------------------------------------


 Maximum index for augmentation-charges         5194 (set IRDMAX)


--------------------------------------------------------------------------------------------------------


 First call to EWALD:  gamma=   0.194
 Maximum number of real-space cells 3x 3x 2
 Maximum number of reciprocal cells 2x 2x 4

    FEWALD:  cpu time      0.0017: real time      0.0017


--------------------------------------- Ionic step        1  -------------------------------------------




--------------------------------------- Iteration      1(   1)  ---------------------------------------


    POTLOK:  cpu time      0.1783: real time      0.1783
    SETDIJ:  cpu time      0.6704: real time      0.6706
     EDDAV:  cpu time     32.4186: real time     32.4269
       DOS:  cpu time      0.0030: real time      0.0031
    --------------------------------------------
      LOOP:  cpu time     33.2703: real time     33.2790

 eigenvalue-minimisations  :  5568
 total energy-change (2. order) : 0.5630182E+04  (-0.1753894E+05)
 number of electron     384.0000000 magnetization 
 augmentation part      384.0000000 magnetization 

 Free energy of the ion-electron system (eV)
  ---------------------------------------------------
  alpha Z        PSCENC =      1328.23288778
  Ewald energy   TEWEN  =    -29442.33413256
  -Hartree energ DENC   =    -11398.36455459
  -exchange      EXHF   =         0.00000000
  -V(xc)+E(xc)   XCENC  =      1234.41268911
  PAW double counting   =     34040.00696010   -33495.80632930
  entropy T*S    EENTRO =        -0.00756711
  eigenvalues    EBANDS =      3022.39022199
  atomic energy  EATOM  =     40341.65184589
  Solvation  Ediel_sol  =         0.00000000
  ---------------------------------------------------
  free energy    TOTEN  =      5630.18202133 eV

  energy without entropy =     5630.18958844  energy(sigma->0) =     5630.18580488


--------------------------------------------------------------------------------------------------------




--------------------------------------- Iteration      1(   2)  ---------------------------------------


     EDDAV:  cpu time     32.5228: real time     32.5320
       DOS:  cpu time      0.0021: real time      0.0023
    --------------------------------------------
      LOOP:  cpu time     32.5249: real time     32.5343

 eigenvalue-minimisations  :  5592
 total energy-change (2. order) :-0.4672787E+04  (-0.4533557E+04)
 number of electron     384.0000000 magnetization 
 augmentation part      384.0000000 magnetization 

 Free energy of the ion-electron system (eV)
  ---------------------------------------------------
  alpha Z        PSCENC =      1328.23288778
  Ewald energy   TEWEN  =    -29442.33413256
  -Hartree energ DENC   =    -11398.36455459
  -exchange      EXHF   =         0.00000000
  -V(xc)+E(xc)   XCENC  =      1234.41268911
  PAW double counting   =     34040.00696010   -33495.80632930
  entropy T*S    EENTRO =        -0.01105948
  eigenvalues    EBANDS =     -1650.39351528
  atomic energy  EATOM  =     40341.65184589
  Solvation  Ediel_sol  =         0.00000000
  ---------------------------------------------------
  free energy    TOTEN  =       957.39479169 eV

  energy without entropy =      957.40585117  energy(sigma->0) =      957.40032143


--------------------------------------------------------------------------------------------------------




--------------------------------------- Iteration      1(   3)  ---------------------------------------


     EDDAV:  cpu time     35.0463: real time     35.0546
       DOS:  cpu time      0.0012: real time      0.0013
    --------------------------------------------
      LOOP:  cpu time     35.0476: real time     35.0559

 eigenvalue-minimisations  :  6208
 total energy-change (2. order) :-0.1069583E+04  (-0.9973631E+03)
 number of electron     384.0000000 magnetization 
 augmentation part      384.0000000 magnetization 

 Free energy of the ion-electron system (eV)
  ---------------------------------------------------
  alpha Z        PSCENC =      1328.23288778
  Ewald energy   TEWEN  =    -29442.33413256
  -Hartree energ DENC   =    -11398.36455459
  -exchange      EXHF   =         0.00000000
  -V(xc)+E(xc)   XCENC  =      1234.41268911
  PAW double counting   =     34040.00696010   -33495.80632930
  entropy T*S    EENTRO =        -0.00000000
  eigenvalues    EBANDS =     -2719.98753622
  atomic energy  EATOM  =     40341.65184589
  Solvation  Ediel_sol  =         0.00000000
  ---------------------------------------------------
  free energy    TOTEN  =      -112.18816977 eV

  energy without entropy =     -112.18816977  energy(sigma->0) =     -112.18816977


--------------------------------------------------------------------------------------------------------




--------------------------------------- Iteration      1(   4)  ---------------------------------------


     EDDAV:  cpu time     36.9137: real time     36.9206
       DOS:  cpu time      0.0015: real time      0.0017
    --------------------------------------------
      LOOP:  cpu time     36.9152: real time     36.9223

 eigenvalue-minimisations  :  6664
 total energy-change (2. order) :-0.1255333E+03  (-0.1217474E+03)
 number of electron     384.0000000 magnetization 
 augmentation part      384.0000000 magnetization 

 Free energy of the ion-electron system (eV)
  ---------------------------------------------------
  alpha Z        PSCENC =      1328.23288778
  Ewald energy   TEWEN  =    -29442.33413256
  -Hartree energ DENC   =    -11398.36455459
  -exchange      EXHF   =         0.00000000
  -V(xc)+E(xc)   XCENC  =      1234.41268911
  PAW double counting   =     34040.00696010   -33495.80632930
  entropy T*S    EENTRO =        -0.00000000
  eigenvalues    EBANDS =     -2845.52080964
  atomic energy  EATOM  =     40341.65184589
  Solvation  Ediel_sol  =         0.00000000
  ---------------------------------------------------
  free energy    TOTEN  =      -237.72144319 eV

  energy without entropy =     -237.72144319  energy(sigma->0) =     -237.72144319


--------------------------------------------------------------------------------------------------------




--------------------------------------- Iteration      1(   5)  ---------------------------------------


     EDDAV:  cpu time     36.9995: real time     37.0047
       DOS:  cpu time      0.0018: real time      0.0019
    CHARGE:  cpu time      1.2728: real time      1.2732
    MIXING:  cpu time      0.0087: real time      0.0087
    --------------------------------------------
      LOOP:  cpu time     38.2828: real time     38.2885

 eigenvalue-minimisations  :  6680
 total energy-change (2. order) :-0.5621996E+01  (-0.5546390E+01)
 number of electron     384.0000008 magnetization 
 augmentation part       98.5301363 magnetization 

 Broyden mixing:
  rms(total) = 0.34191E+01    rms(broyden)= 0.34185E+01
  rms(prec ) = 0.43659E+01
  weight for this iteration     100.00

 Free energy of the ion-electron system (eV)
  ---------------------------------------------------
  alpha Z        PSCENC =      1328.23288778
  Ewald energy   TEWEN  =    -29442.33413256
  -Hartree energ DENC   =    -11398.36455459
  -exchange      EXHF   =         0.00000000
  -V(xc)+E(xc)   XCENC  =      1234.41268911
  PAW double counting   =     34040.00696010   -33495.80632930
  entropy T*S    EENTRO =        -0.00000000
  eigenvalues    EBANDS =     -2851.14280611
  atomic energy  EATOM  =     40341.65184589
  Solvation  Ediel_sol  =         0.00000000
  ---------------------------------------------------
  free energy    TOTEN  =      -243.34343966 eV

  energy without entropy =     -243.34343966  energy(sigma->0) =     -243.34343966


--------------------------------------------------------------------------------------------------------




--------------------------------------- Iteration      1(   6)  ---------------------------------------


    POTLOK:  cpu time      0.1753: real time      0.1754
    SETDIJ:  cpu time      0.6766: real time      0.6769
     EDDAV:  cpu time     41.2934: real time     41.3034
       DOS:  cpu time      0.0018: real time      0.0020
    CHARGE:  cpu time      1.2768: real time      1.2770
    MIXING:  cpu time      0.0063: real time      0.0063
    --------------------------------------------
      LOOP:  cpu time     43.4303: real time     43.4410

 eigenvalue-minimisations  :  7728
 total energy-change (2. order) : 0.3438820E+02  (-0.1456692E+02)
 number of electron     384.0000007 magnetization 
 augmentation part       95.1525305 magnetization 

 Broyden mixing:
  rms(total) = 0.13606E+01    rms(broyden)= 0.13590E+01
  rms(prec ) = 0.16272E+01
  weight for this iteration     100.00

 eigenvalues of (default mixing * dielectric matrix)
  average eigenvalue GAMMA=   0.7619
  0.7619

 Free energy of the ion-electron system (eV)
  ---------------------------------------------------
  alpha Z        PSCENC =      1328.23288778
  Ewald energy   TEWEN  =    -29442.33413256
  -Hartree energ DENC   =    -11644.55713235
  -exchange      EXHF   =         0.00000000
  -V(xc)+E(xc)   XCENC  =      1254.19826388
  PAW double counting   =     34667.80753940   -34080.45881567
  entropy T*S    EENTRO =        -0.00000000
  eigenvalues    EBANDS =     -2633.49569945
  atomic energy  EATOM  =     40341.65184589
  Solvation  Ediel_sol  =         0.00000000
  ---------------------------------------------------
  free energy    TOTEN  =      -208.95524307 eV

  energy without entropy =     -208.95524307  energy(sigma->0) =     -208.95524307


--------------------------------------------------------------------------------------------------------




--------------------------------------- Iteration      1(   7)  ---------------------------------------


    POTLOK:  cpu time      0.1766: real time      0.1766
    SETDIJ:  cpu time      0.6743: real time      0.6760
     EDDAV:  cpu time     34.8171: real time     34.8288
       DOS:  cpu time      0.0019: real time      0.0020
    CHARGE:  cpu time      1.2751: real time      1.2754
    MIXING:  cpu time      0.0064: real time      0.0064
    --------------------------------------------
      LOOP:  cpu time     36.9513: real time     36.9652

 eigenvalue-minimisations  :  6152
 total energy-change (2. order) : 0.1486162E+00  (-0.2928333E+01)
 number of electron     384.0000008 magnetization 
 augmentation part       95.0095740 magnetization 

 Broyden mixing:
  rms(total) = 0.81014E+00    rms(broyden)= 0.81014E+00
  rms(prec ) = 0.88726E+00
  weight for this iteration     100.00

 eigenvalues of (default mixing * dielectric matrix)
  average eigenvalue GAMMA=   1.1213
  1.1213  1.1213

 Free energy of the ion-electron system (eV)
  ---------------------------------------------------
  alpha Z        PSCENC =      1328.23288778
  Ewald energy   TEWEN  =    -29442.33413256
  -Hartree energ DENC   =    -11554.89494328
  -exchange      EXHF   =         0.00000000
  -V(xc)+E(xc)   XCENC  =      1250.79966543
  PAW double counting   =     35415.46096081   -34821.14954945
  entropy T*S    EENTRO =        -0.00000000
  eigenvalues    EBANDS =     -2726.57336147
  atomic energy  EATOM  =     40341.65184589
  Solvation  Ediel_sol  =         0.00000000
  ---------------------------------------------------
  free energy    TOTEN  =      -208.80662685 eV

  energy without entropy =     -208.80662685  energy(sigma->0) =     -208.80662685


--------------------------------------------------------------------------------------------------------




--------------------------------------- Iteration      1(   8)  ---------------------------------------


    POTLOK:  cpu time      0.1761: real time      0.1762
    SETDIJ:  cpu time      0.6739: real time      0.6743
     EDDAV:  cpu time     42.5089: real time     42.5172
       DOS:  cpu time      0.0017: real time      0.0018
    CHARGE:  cpu time      1.2735: real time      1.2751
    MIXING:  cpu time      0.0072: real time      0.0072
    --------------------------------------------
      LOOP:  cpu time     44.6414: real time     44.6519

 eigenvalue-minimisations  :  8032
 total energy-change (2. order) :-0.1402774E+00  (-0.5877970E+00)
 number of electron     384.0000008 magnetization 
 augmentation part       95.3418543 magnetization 

 Broyden mixing:
  rms(total) = 0.34916E+00    rms(broyden)= 0.34901E+00
  rms(prec ) = 0.41381E+00
  weight for this iteration     100.00

 eigenvalues of (default mixing * dielectric matrix)
  average eigenvalue GAMMA=   1.3112
  2.2436  0.8449  0.8449

 Free energy of the ion-electron system (eV)
  ---------------------------------------------------
  alpha Z        PSCENC =      1328.23288778
  Ewald energy   TEWEN  =    -29442.33413256
  -Hartree energ DENC   =    -11540.42379291
  -exchange      EXHF   =         0.00000000
  -V(xc)+E(xc)   XCENC  =      1249.89699538
  PAW double counting   =     35805.51740452   -35205.55574263
  entropy T*S    EENTRO =        -0.00000001
  eigenvalues    EBANDS =     -2745.93236974
  atomic energy  EATOM  =     40341.65184589
  Solvation  Ediel_sol  =         0.00000000
  ---------------------------------------------------
  free energy    TOTEN  =      -208.94690427 eV

  energy without entropy =     -208.94690426  energy(sigma->0) =     -208.94690427


--------------------------------------------------------------------------------------------------------




--------------------------------------- Iteration      1(   9)  ---------------------------------------


    POTLOK:  cpu time      0.1754: real time      0.1758
    SETDIJ:  cpu time      0.6725: real time      0.6735
     EDDAV:  cpu time     40.2607: real time     40.2661
       DOS:  cpu time      0.0017: real time      0.0018
    CHARGE:  cpu time      1.2777: real time      1.2779
    MIXING:  cpu time      0.0066: real time      0.0066
    --------------------------------------------
      LOOP:  cpu time     42.3947: real time     42.4018

 eigenvalue-minimisations  :  7480
 total energy-change (2. order) : 0.7738027E-01  (-0.6320118E-01)
 number of electron     384.0000008 magnetization 
 augmentation part       95.0275967 magnetization 

 Broyden mixing:
  rms(total) = 0.14971E+00    rms(broyden)= 0.14969E+00
  rms(prec ) = 0.17887E+00
  weight for this iteration     100.00

 eigenvalues of (default mixing * dielectric matrix)
  average eigenvalue GAMMA=   1.3154
  2.4674  1.1302  0.8321  0.8321

 Free energy of the ion-electron system (eV)
  ---------------------------------------------------
  alpha Z        PSCENC =      1328.23288778
  Ewald energy   TEWEN  =    -29442.33413256
  -Hartree energ DENC   =    -11568.09561380
  -exchange      EXHF   =         0.00000000
  -V(xc)+E(xc)   XCENC  =      1251.70258946
  PAW double counting   =     36186.44166772   -35581.26245513
  entropy T*S    EENTRO =        -0.00000000
  eigenvalues    EBANDS =     -2725.20631336
  atomic energy  EATOM  =     40341.65184589
  Solvation  Ediel_sol  =         0.00000000
  ---------------------------------------------------
  free energy    TOTEN  =      -208.86952400 eV

  energy without entropy =     -208.86952400  energy(sigma->0) =     -208.86952400


--------------------------------------------------------------------------------------------------------




--------------------------------------- Iteration      1(  10)  ---------------------------------------


    POTLOK:  cpu time      0.1767: real time      0.1767
    SETDIJ:  cpu time      0.6736: real time      0.6738
     EDDAV:  cpu time     37.9908: real time     37.9913
       DOS:  cpu time      0.0016: real time      0.0017
    CHARGE:  cpu time      1.2759: real time      1.2763
    MIXING:  cpu time      0.0079: real time      0.0079
    --------------------------------------------
      LOOP:  cpu time     40.1265: real time     40.1277

 eigenvalue-minimisations  :  6928
 total energy-change (2. order) : 0.1309022E-01  (-0.1824018E-01)
 number of electron     384.0000008 magnetization 
 augmentation part       95.0357195 magnetization 

 Broyden mixing:
  rms(total) = 0.38010E-01    rms(broyden)= 0.37989E-01
  rms(prec ) = 0.39871E-01
  weight for this iteration     100.00

 eigenvalues of (default mixing * dielectric matrix)
  average eigenvalue GAMMA=   1.1676
  2.4188  1.0598  0.8309  0.8309  0.6974

 Free energy of the ion-electron system (eV)
  ---------------------------------------------------
  alpha Z        PSCENC =      1328.23288778
  Ewald energy   TEWEN  =    -29442.33413256
  -Hartree energ DENC   =    -11559.77434223
  -exchange      EXHF   =         0.00000000
  -V(xc)+E(xc)   XCENC  =      1251.38988249
  PAW double counting   =     36309.80354105   -35704.33651071
  entropy T*S    EENTRO =        -0.00000000
  eigenvalues    EBANDS =     -2733.48960549
  atomic energy  EATOM  =     40341.65184589
  Solvation  Ediel_sol  =         0.00000000
  ---------------------------------------------------
  free energy    TOTEN  =      -208.85643378 eV

  energy without entropy =     -208.85643378  energy(sigma->0) =     -208.85643378


--------------------------------------------------------------------------------------------------------




--------------------------------------- Iteration      1(  11)  ---------------------------------------


    POTLOK:  cpu time      0.1764: real time      0.1766
    SETDIJ:  cpu time      0.6755: real time      0.6757
     EDDAV:  cpu time     39.2531: real time     39.2605
       DOS:  cpu time      0.0013: real time      0.0014
    CHARGE:  cpu time      1.2757: real time      1.2759
    MIXING:  cpu time      0.0069: real time      0.0069
    --------------------------------------------
      LOOP:  cpu time     41.3889: real time     41.3969

 eigenvalue-minimisations  :  7232
 total energy-change (2. order) :-0.2395176E-02  (-0.2337999E-02)
 number of electron     384.0000008 magnetization 
 augmentation part       95.0457950 magnetization 

 Broyden mixing:
  rms(total) = 0.34050E-01    rms(broyden)= 0.34047E-01
  rms(prec ) = 0.36592E-01
  weight for this iteration     100.00

 eigenvalues of (default mixing * dielectric matrix)
  average eigenvalue GAMMA=   1.3599
  2.1265  1.6064  1.6064  0.8275  0.8275  1.1652

 Free energy of the ion-electron system (eV)
  ---------------------------------------------------
  alpha Z        PSCENC =      1328.23288778
  Ewald energy   TEWEN  =    -29442.33413256
  -Hartree energ DENC   =    -11559.72332565
  -exchange      EXHF   =         0.00000000
  -V(xc)+E(xc)   XCENC  =      1251.40385321
  PAW double counting   =     36286.67804601   -35681.62754902
  entropy T*S    EENTRO =        -0.00000000
  eigenvalues    EBANDS =     -2733.14045462
  atomic energy  EATOM  =     40341.65184589
  Solvation  Ediel_sol  =         0.00000000
  ---------------------------------------------------
  free energy    TOTEN  =      -208.85882896 eV

  energy without entropy =     -208.85882896  energy(sigma->0) =     -208.85882896


--------------------------------------------------------------------------------------------------------




--------------------------------------- Iteration      1(  12)  ---------------------------------------


    POTLOK:  cpu time      0.1763: real time      0.1763
    SETDIJ:  cpu time      0.6746: real time      0.6747
     EDDAV:  cpu time     41.4956: real time     41.4951
       DOS:  cpu time      0.0019: real time      0.0020
    CHARGE:  cpu time      1.2756: real time      1.2760
    MIXING:  cpu time      0.0069: real time      0.0069
    --------------------------------------------
      LOOP:  cpu time     43.6309: real time     43.6311

 eigenvalue-minimisations  :  7776
 total energy-change (2. order) :-0.9055300E-03  (-0.8510017E-03)
 number of electron     384.0000008 magnetization 
 augmentation part       95.0164936 magnetization 

 Broyden mixing:
  rms(total) = 0.17180E-01    rms(broyden)= 0.17175E-01
  rms(prec ) = 0.20188E-01
  weight for this iteration     100.00

 eigenvalues of (default mixing * dielectric matrix)
  average eigenvalue GAMMA=   1.3967
  2.5287  2.3994  0.8117  0.8117  1.1236  1.1236  0.9784

 Free energy of the ion-electron system (eV)
  ---------------------------------------------------
  alpha Z        PSCENC =      1328.23288778
  Ewald energy   TEWEN  =    -29442.33413256
  -Hartree energ DENC   =    -11560.71728307
  -exchange      EXHF   =         0.00000000
  -V(xc)+E(xc)   XCENC  =      1251.51342665
  PAW double counting   =     36262.24369608   -35658.00166845
  entropy T*S    EENTRO =        -0.00000000
  eigenvalues    EBANDS =     -2731.44850682
  atomic energy  EATOM  =     40341.65184589
  Solvation  Ediel_sol  =         0.00000000
  ---------------------------------------------------
  free energy    TOTEN  =      -208.85973449 eV

  energy without entropy =     -208.85973449  energy(sigma->0) =     -208.85973449


--------------------------------------------------------------------------------------------------------




--------------------------------------- Iteration      1(  13)  ---------------------------------------


    POTLOK:  cpu time      0.1762: real time      0.1763
    SETDIJ:  cpu time      0.6729: real time      0.6728
     EDDAV:  cpu time     35.9794: real time     35.9797
       DOS:  cpu time      0.0020: real time      0.0021
    CHARGE:  cpu time      1.2756: real time      1.2756
    MIXING:  cpu time      0.0072: real time      0.0072
    --------------------------------------------
      LOOP:  cpu time     38.1131: real time     38.1137

 eigenvalue-minimisations  :  6432
 total energy-change (2. order) : 0.2191317E-04  (-0.7994540E-04)
 number of electron     384.0000008 magnetization 
 augmentation part       95.0157918 magnetization 

 Broyden mixing:
  rms(total) = 0.97556E-02    rms(broyden)= 0.97555E-02
  rms(prec ) = 0.11209E-01
  weight for this iteration     100.00

 eigenvalues of (default mixing * dielectric matrix)
  average eigenvalue GAMMA=   1.3811
  2.7252  2.4410  1.1630  0.9955  0.8285  0.8285  1.0336  1.0336

 Free energy of the ion-electron system (eV)
  ---------------------------------------------------
  alpha Z        PSCENC =      1328.23288778
  Ewald energy   TEWEN  =    -29442.33413256
  -Hartree energ DENC   =    -11560.27976701
  -exchange      EXHF   =         0.00000000
  -V(xc)+E(xc)   XCENC  =      1251.50203219
  PAW double counting   =     36253.78358484   -35649.86616211
  entropy T*S    EENTRO =        -0.00000000
  eigenvalues    EBANDS =     -2731.55000161
  atomic energy  EATOM  =     40341.65184589
  Solvation  Ediel_sol  =         0.00000000
  ---------------------------------------------------
  free energy    TOTEN  =      -208.85971258 eV

  energy without entropy =     -208.85971258  energy(sigma->0) =     -208.85971258


--------------------------------------------------------------------------------------------------------




--------------------------------------- Iteration      1(  14)  ---------------------------------------


    POTLOK:  cpu time      0.1769: real time      0.1770
    SETDIJ:  cpu time      0.6740: real time      0.6740
     EDDAV:  cpu time     37.8648: real time     37.8744
       DOS:  cpu time      0.0018: real time      0.0019
    CHARGE:  cpu time      1.2752: real time      1.2755
    MIXING:  cpu time      0.0079: real time      0.0079
    --------------------------------------------
      LOOP:  cpu time     40.0007: real time     40.0107

 eigenvalue-minimisations  :  6896
 total energy-change (2. order) : 0.6371539E-04  (-0.3009904E-04)
 number of electron     384.0000008 magnetization 
 augmentation part       95.0191937 magnetization 

 Broyden mixing:
  rms(total) = 0.48261E-02    rms(broyden)= 0.48252E-02
  rms(prec ) = 0.55557E-02
  weight for this iteration     100.00

 eigenvalues of (default mixing * dielectric matrix)
  average eigenvalue GAMMA=   1.3084
  2.6885  2.3908  1.2450  1.1060  1.1060  0.9778  0.8313  0.8313  0.5984

 Free energy of the ion-electron system (eV)
  ---------------------------------------------------
  alpha Z        PSCENC =      1328.23288778
  Ewald energy   TEWEN  =    -29442.33413256
  -Hartree energ DENC   =    -11560.17054177
  -exchange      EXHF   =         0.00000000
  -V(xc)+E(xc)   XCENC  =      1251.49247987
  PAW double counting   =     36249.81097342   -35645.89545496
  entropy T*S    EENTRO =        -0.00000000
  eigenvalues    EBANDS =     -2731.64770654
  atomic energy  EATOM  =     40341.65184589
  Solvation  Ediel_sol  =         0.00000000
  ---------------------------------------------------
  free energy    TOTEN  =      -208.85964886 eV

  energy without entropy =     -208.85964886  energy(sigma->0) =     -208.85964886


--------------------------------------------------------------------------------------------------------




--------------------------------------- Iteration      1(  15)  ---------------------------------------


    POTLOK:  cpu time      0.1745: real time      0.1748
    SETDIJ:  cpu time      0.6760: real time      0.6761
     EDDAV:  cpu time     43.6511: real time     43.6514
       DOS:  cpu time      0.0018: real time      0.0019
    CHARGE:  cpu time      1.2783: real time      1.2787
    MIXING:  cpu time      0.0069: real time      0.0069
    --------------------------------------------
      LOOP:  cpu time     45.7885: real time     45.7898

 eigenvalue-minimisations  :  8304
 total energy-change (2. order) : 0.1969742E-04  (-0.4509855E-05)
 number of electron     384.0000008 magnetization 
 augmentation part       95.0210683 magnetization 

 Broyden mixing:
  rms(total) = 0.28748E-02    rms(broyden)= 0.28744E-02
  rms(prec ) = 0.32003E-02
  weight for this iteration     100.00

 eigenvalues of (default mixing * dielectric matrix)
  average eigenvalue GAMMA=   1.3342
  2.6963  2.4375  1.3062  1.3062  1.1623  0.9624  0.8247  0.8247  0.9108  0.9108

 Free energy of the ion-electron system (eV)
  ---------------------------------------------------
  alpha Z        PSCENC =      1328.23288778
  Ewald energy   TEWEN  =    -29442.33413256
  -Hartree energ DENC   =    -11560.09956288
  -exchange      EXHF   =         0.00000000
  -V(xc)+E(xc)   XCENC  =      1251.48669948
  PAW double counting   =     36249.13040396   -35645.19379025
  entropy T*S    EENTRO =        -0.00000000
  eigenvalues    EBANDS =     -2731.73398058
  atomic energy  EATOM  =     40341.65184589
  Solvation  Ediel_sol  =         0.00000000
  ---------------------------------------------------
  free energy    TOTEN  =      -208.85962916 eV

  energy without entropy =     -208.85962916  energy(sigma->0) =     -208.85962916


--------------------------------------------------------------------------------------------------------




--------------------------------------- Iteration      1(  16)  ---------------------------------------


    POTLOK:  cpu time      0.1760: real time      0.1760
    SETDIJ:  cpu time      0.6734: real time      0.6738
     EDDAV:  cpu time     36.2074: real time     36.2554
       DOS:  cpu time      0.0016: real time      0.0017
    CHARGE:  cpu time      1.2764: real time      1.2765
    MIXING:  cpu time      0.0075: real time      0.0075
    --------------------------------------------
      LOOP:  cpu time     38.3422: real time     38.3909

 eigenvalue-minimisations  :  6496
[...]
    163       4.2879      2.00000
    164       4.2891      2.00000
    165       4.2892      2.00000
    166       4.2910      2.00000
    167       4.2910      2.00000
    168       4.2926      2.00000
    169       4.6442      2.00000
    170       4.6452      2.00000
    171       4.6651      2.00000
    172       4.6651      2.00000
    173       4.8140      2.00000
    174       4.8161      2.00000
    175       4.8302      2.00000
    176       4.8302      2.00000
    177       4.9481      2.00000
    178       4.9481      2.00000
    179       4.9670      2.00000
    180       4.9697      2.00000
    181       5.3582      2.00000
    182       5.3696      2.00000
    183       5.3696      2.00000
    184       5.3909      2.00000
    185       5.8337      2.00000
    186       5.8337      2.00000
    187       5.8503      2.00000
    188       5.8696      2.00000
    189       5.9415      2.00000
    190       5.9415      2.00000
    191       5.9548      2.00000
    192       5.9702      2.00000
    193       7.9859      0.00000
    194       8.0129      0.00000
    195       8.0129      0.00000
    196       8.0468      0.00000
    197       8.7429      0.00000
    198       8.7732      0.00000
    199       8.7732      0.00000
    200       8.8058      0.00000
    201       9.2138      0.00000
    202       9.2237      0.00000
    203       9.2435      0.00000
    204       9.2435      0.00000
    205       9.5229      0.00000
    206       9.5383      0.00000
    207       9.5646      0.00000
    208       9.5646      0.00000
    209       9.7500      0.00000
    210       9.7500      0.00000
    211       9.7823      0.00000
    212       9.8182      0.00000
    213       9.8184      0.00000
    214       9.8233      0.00000
    215       9.8233      0.00000
    216       9.8456      0.00000
    217      10.6544      0.00000
    218      10.6544      0.00000
    219      10.6730      0.00000
    220      10.6897      0.00000
    221      10.7215      0.00000
    222      10.7215      0.00000
    223      10.7217      0.00000
    224      10.7294      0.00000
    225      11.2994      0.00000
    226      11.3174      0.00000
    227      11.3180      0.00000
    228      11.3823      0.00000
    229      11.3916      0.00000
    230      11.4063      0.00000
    231      11.4257      0.00000
    232      11.5129      0.00000


--------------------------------------------------------------------------------------------------------


 soft charge-density along one line, spin component           1
         0         1         2         3         4         5         6         7         8         9
 total charge-density along one line
 
 pseudopotential strength for first ion, spin component:           1
-17.712   0.001   0.001   0.001  -0.000   3.938  -0.000  -0.000
  0.001 -17.697   0.001  -0.001  -0.001  -0.000   3.932  -0.000
  0.001   0.001 -17.721   0.001   0.000  -0.000  -0.000   3.945
  0.001  -0.001   0.001 -17.697   0.001  -0.000   0.000  -0.000
 -0.000  -0.001   0.000   0.001 -17.694   0.000   0.001  -0.000
  3.938  -0.000  -0.000  -0.000   0.000   5.808   0.000   0.000
 -0.000   3.932  -0.000   0.000   0.001   0.000   5.810   0.000
 -0.000  -0.000   3.945  -0.000  -0.000   0.000   0.000   5.808
 -0.000   0.000  -0.000   3.932  -0.001   0.000  -0.000   0.000
  0.000   0.001  -0.000  -0.001   3.929   0.000  -0.000   0.000
 -0.000   0.000   0.004   0.000   0.000   0.000  -0.000   0.004
  0.000  -0.000  -0.005  -0.000   0.000  -0.000   0.000  -0.005
  0.000  -0.017  -0.000  -0.000  -0.000   0.000   0.003   0.000
 -0.000   0.000  -0.020   0.000   0.000  -0.000   0.000   0.003
  0.000  -0.000  -0.000  -0.017   0.000   0.000  -0.000   0.000
  0.000  -0.028  -0.000  -0.000  -0.000   0.000   0.003   0.000
 -0.000   0.000  -0.031   0.000   0.000  -0.000   0.000  -0.000
  0.000  -0.000  -0.000  -0.028   0.000   0.000  -0.000   0.000
 total augmentation occupancy for first ion, spin component:           1
  1.999   0.000   0.000   0.000   0.000  -0.005   0.000   0.000   0.000   0.000  -0.000  -0.000  -0.000  -0.000  -0.000   0.000
  0.000   1.998  -0.000  -0.000   0.000   0.000  -0.006   0.000  -0.000  -0.000   0.000   0.000   0.035  -0.000  -0.000  -0.012
  0.000  -0.000   2.000  -0.000  -0.000   0.000   0.000  -0.002   0.000   0.000   0.001   0.001   0.000   0.032   0.000  -0.000
  0.000  -0.000  -0.000   1.998  -0.000   0.000  -0.000   0.000  -0.006   0.000   0.000   0.000  -0.000  -0.000   0.035   0.000
  0.000   0.000  -0.000  -0.000   1.998   0.000  -0.000   0.000   0.000  -0.007   0.000   0.000   0.000   0.000  -0.000  -0.000
 -0.005   0.000   0.000   0.000   0.000   0.020   0.000   0.000   0.000   0.000  -0.000  -0.000   0.002  -0.001   0.002  -0.000
  0.000  -0.006   0.000  -0.000  -0.000   0.000   0.044   0.000  -0.001  -0.000   0.000   0.001  -0.079   0.000  -0.002   0.011
  0.000   0.000  -0.002   0.000   0.000   0.000   0.000   0.015   0.000  -0.000   0.012  -0.005  -0.001   0.007  -0.001   0.000
  0.000  -0.000   0.000  -0.006   0.000   0.000  -0.001   0.000   0.044   0.000   0.000   0.001  -0.002   0.000  -0.079   0.000
  0.000  -0.000   0.000   0.000  -0.007   0.000  -0.000  -0.000   0.000   0.051   0.000  -0.000   0.001   0.000  -0.001  -0.000
 -0.000   0.000   0.001   0.000   0.000  -0.000   0.000   0.012   0.000   0.000   2.045  -0.027  -0.000   0.168  -0.000  -0.000
 -0.000   0.000   0.001   0.000   0.000  -0.000   0.001  -0.005   0.001  -0.000  -0.027   0.030   0.001  -0.077   0.001   0.000
 -0.000   0.035   0.000  -0.000   0.000   0.002  -0.079  -0.001  -0.002   0.001  -0.000   0.001   0.882   0.006  -0.006  -0.079
 -0.000  -0.000   0.032  -0.000   0.000  -0.001   0.000   0.007   0.000   0.000   0.168  -0.077   0.006   0.951   0.006  -0.001
 -0.000  -0.000   0.000   0.035  -0.000   0.002  -0.002  -0.001  -0.079  -0.001  -0.000   0.001  -0.006   0.006   0.882   0.000
  0.000  -0.012  -0.000   0.000  -0.000  -0.000   0.011   0.000   0.000  -0.000  -0.000   0.000  -0.079  -0.001   0.000   0.009
  0.000   0.000  -0.019   0.000  -0.000   0.000   0.000  -0.000   0.000   0.000  -0.012   0.008  -0.001  -0.079  -0.001   0.000
  0.000   0.000  -0.000  -0.012   0.000  -0.000   0.000   0.000   0.011   0.000  -0.000   0.000   0.000  -0.001  -0.079  -0.000


------------------------ aborting loop because EDIFF is reached ----------------------------------------


    CHARGE:  cpu time      1.2762: real time      1.2774
    FORLOC:  cpu time      0.0171: real time      0.0171
    FORNL :  cpu time      6.0742: real time      6.0764
    STRESS:  cpu time     19.7905: real time     19.8009
    FORCOR:  cpu time      0.1785: real time      0.1787
    FORHAR:  cpu time      0.0587: real time      0.0588
    MIXING:  cpu time      0.0070: real time      0.0070
    OFIELD:  cpu time      0.0001: real time      0.0001

  FORCE on cell =-STRESS in cart. coord.  units (eV):
  Direction    XX          YY          ZZ          XY          YZ          ZX
  --------------------------------------------------------------------------------------
  Alpha Z  1328.23289  1328.23289  1328.23289
  Ewald   -8068.91382 -8068.91382-13304.61911    -0.00000    -0.00000    -0.00000
  Hartree  5390.89534  5390.89534   778.22928    -0.00000    -0.00000    -0.00000
  E(xc)   -1825.77889 -1825.77889 -1827.44678     0.00000    -0.00000     0.00000
  Local   -5524.14913 -5524.14913  4333.25727    -0.00000    -0.00000    -0.00000
  n-local  1576.66672  1584.35730  1586.62436     0.48645    -0.05638     0.11333
  augment  2176.41271  2176.41271  2161.13050     0.00000     0.00000     0.00000
  Kinetic  4938.48062  4947.09759  4944.59183    -3.52152     0.45474    -0.53026
  Fock        0.00000     0.00000     0.00000     0.00000     0.00000     0.00000
  -------------------------------------------------------------------------------------
  Total       0.00022     0.00022     0.00024     0.00000     0.00000     0.00000
  in kB       0.00047     0.00047     0.00050     0.00000     0.00000     0.00000
  external pressure =        0.00 kB  Pullay stress =        0.00 kB


 VOLUME and BASIS-vectors are now :
 -----------------------------------------------------------------------------
  energy-cutoff  :      520.00
  volume of cell :      760.53
      direct lattice vectors                 reciprocal lattice vectors
     7.840159049  0.000000000  0.000000000     0.127548433  0.000000000  0.000000000
     0.000000000  7.840159049  0.000000000     0.000000000  0.127548433  0.000000000
     0.000000000  0.000000000 12.372701806     0.000000000  0.000000000  0.080823091

  length of vectors
     7.840159049  7.840159049 12.372701806     0.127548433  0.127548433  0.080823091


 FORCES acting on ions
    electron-ion (+dipol)            ewald-force                    non-local-force                 convergence-correction
 -----------------------------------------------------------------------------------------------
   -.604E+01 -.604E+01 -.438E+03   0.593E+01 0.593E+01 0.448E+03   0.106E+00 0.106E+00 -.109E+02   -.283E-04 -.283E-04 0.530E-04
   0.604E+01 -.604E+01 -.438E+03   -.593E+01 0.593E+01 0.448E+03   -.106E+00 0.106E+00 -.109E+02   0.283E-04 -.283E-04 0.530E-04
   -.604E+01 0.604E+01 -.438E+03   0.593E+01 -.593E+01 0.448E+03   0.106E+00 -.106E+00 -.109E+02   -.283E-04 0.283E-04 0.530E-04
   0.604E+01 0.604E+01 -.438E+03   -.593E+01 -.593E+01 0.448E+03   -.106E+00 -.106E+00 -.109E+02   0.283E-04 0.283E-04 0.530E-04
   -.175E-13 0.172E-12 0.469E+03   0.284E-13 -.284E-13 -.479E+03   -.405E-18 -.238E-18 0.107E+02   -.139E-12 0.735E-13 -.415E-04
   0.784E-12 -.191E-11 0.467E+03   0.568E-13 -.151E-13 -.478E+03   0.153E-17 0.108E-18 0.107E+02   -.991E-14 0.866E-13 -.428E-04
   -.468E-14 -.237E-11 0.467E+03   -.853E-13 0.284E-13 -.478E+03   -.900E-19 -.161E-19 0.107E+02   -.138E-12 -.145E-13 -.428E-04
   0.803E-12 0.178E-11 0.467E+03   -.199E-12 -.586E-13 -.478E+03   0.815E-18 0.287E-18 0.108E+02   -.162E-13 -.176E-13 -.373E-04
   -.862E-13 -.344E-12 -.469E+03   0.114E-12 -.568E-13 0.479E+03   0.207E-17 0.158E-18 -.107E+02   -.156E-12 0.587E-13 0.415E-04
   0.758E-12 0.175E-11 -.467E+03   0.114E-12 0.178E-13 0.478E+03   -.102E-17 0.608E-19 -.107E+02   -.987E-13 0.248E-13 0.428E-04
   -.411E-13 0.360E-11 -.467E+03   0.568E-13 0.284E-13 0.478E+03   -.779E-19 0.565E-19 -.107E+02   -.167E-12 -.330E-13 0.428E-04
   0.791E-12 -.371E-11 -.467E+03   -.142E-12 -.604E-13 0.478E+03   -.107E-17 0.110E-17 -.108E+02   -.114E-12 -.786E-13 0.373E-04
   -.604E+01 -.604E+01 0.438E+03   0.593E+01 0.593E+01 -.448E+03   0.106E+00 0.106E+00 0.109E+02   -.283E-04 -.283E-04 -.530E-04
   0.604E+01 -.604E+01 0.438E+03   -.593E+01 0.593E+01 -.448E+03   -.106E+00 0.106E+00 0.109E+02   0.283E-04 -.283E-04 -.530E-04
   -.604E+01 0.604E+01 0.438E+03   0.593E+01 -.593E+01 -.448E+03   0.106E+00 -.106E+00 0.109E+02   -.283E-04 0.283E-04 -.530E-04
   0.604E+01 0.604E+01 0.438E+03   -.593E+01 -.593E+01 -.448E+03   -.106E+00 -.106E+00 0.109E+02   0.283E-04 0.283E-04 -.530E-04
   0.332E-13 0.357E-13 0.363E-12   -.568E-13 0.426E-13 -.284E-13   -.349E-24 -.116E-24 0.497E-25   -.978E-13 0.415E-13 -.268E-13
   -.204E-13 0.121E-13 0.523E-14   0.284E-13 -.142E-13 -.426E-13   -.899E-26 -.473E-24 -.410E-24   0.996E-13 -.451E-13 -.257E-13
   0.344E-13 -.565E-12 0.317E-12   0.568E-13 0.000E+00 -.391E-13   -.434E-25 -.469E-25 0.786E-25   -.102E-12 -.465E-13 -.266E-13
   -.209E+01 -.209E+01 -.375E-07   0.210E+01 0.210E+01 -.206E-13   -.105E-01 -.105E-01 -.314E-20   -.162E-05 -.162E-05 0.814E-13
   0.209E+01 -.209E+01 -.153E-11   -.210E+01 0.210E+01 0.362E-13   0.105E-01 -.105E-01 -.167E-20   0.162E-05 -.162E-05 0.948E-13
   -.209E+01 0.209E+01 -.122E-11   0.210E+01 -.210E+01 0.696E-15   -.105E-01 0.105E-01 -.655E-20   -.162E-05 0.162E-05 0.799E-13
   0.209E+01 0.209E+01 0.375E-07   -.210E+01 -.210E+01 0.256E-13   0.105E-01 0.105E-01 0.694E-20   0.162E-05 0.162E-05 0.952E-13
   -.393E-13 -.227E+01 0.855E+01   -.284E-13 0.226E+01 -.869E+01   0.131E-18 0.208E-02 0.147E+00   0.801E-13 -.286E-05 0.480E-05
   0.270E-12 -.166E+01 0.389E+01   0.284E-13 0.164E+01 -.374E+01   0.177E-18 0.156E-01 -.143E+00   -.606E-13 -.109E-05 -.309E-05
   -.271E-13 0.227E+01 0.855E+01   -.711E-13 -.226E+01 -.869E+01   0.173E-18 -.208E-02 0.147E+00   0.647E-13 0.286E-05 0.480E-05
   0.261E-12 0.166E+01 0.389E+01   0.284E-13 -.164E+01 -.374E+01   -.457E-19 -.156E-01 -.143E+00   -.449E-13 0.109E-05 -.309E-05
   -.227E+01 -.241E-12 0.855E+01   0.226E+01 0.142E-13 -.869E+01   0.208E-02 0.348E-18 0.147E+00   -.286E-05 0.578E-13 0.480E-05
   0.227E+01 -.691E-12 0.855E+01   -.226E+01 -.142E-13 -.869E+01   -.208E-02 0.330E-18 0.147E+00   0.286E-05 0.482E-13 0.480E-05
   -.166E+01 0.136E-11 0.389E+01   0.164E+01 -.355E-13 -.374E+01   0.156E-01 -.394E-18 -.143E+00   -.109E-05 -.297E-13 -.309E-05
   0.166E+01 -.527E-11 0.389E+01   -.164E+01 0.000E+00 -.374E+01   -.156E-01 0.361E-19 -.143E+00   0.109E-05 -.694E-14 -.309E-05
   -.227E+01 0.580E-12 -.855E+01   0.226E+01 0.142E-13 0.869E+01   0.208E-02 0.509E-18 -.147E+00   -.286E-05 0.454E-14 -.480E-05
   0.227E+01 0.167E-12 -.855E+01   -.226E+01 0.000E+00 0.869E+01   -.208E-02 0.118E-18 -.147E+00   0.286E-05 0.947E-14 -.480E-05
   -.166E+01 0.794E-12 -.389E+01   0.164E+01 0.284E-13 0.374E+01   0.156E-01 0.500E-19 0.143E+00   -.109E-05 -.490E-13 0.309E-05
   0.166E+01 -.332E-11 -.389E+01   -.164E+01 -.711E-13 0.374E+01   -.156E-01 -.475E-18 0.143E+00   0.109E-05 -.691E-13 0.309E-05
   -.187E-13 -.227E+01 -.855E+01   -.568E-13 0.226E+01 0.869E+01   -.146E-18 0.208E-02 -.147E+00   -.156E-13 -.286E-05 -.480E-05
   0.234E-12 -.166E+01 -.389E+01   0.284E-13 0.164E+01 0.374E+01   0.333E-19 0.156E-01 0.143E+00   -.141E-12 -.109E-05 0.309E-05
   -.327E-13 0.227E+01 -.855E+01   -.142E-13 -.226E+01 0.869E+01   -.377E-18 -.208E-02 -.147E+00   -.204E-14 0.286E-05 -.480E-05
   0.259E-12 0.166E+01 -.389E+01   0.000E+00 -.164E+01 0.374E+01   0.281E-18 -.156E-01 0.143E+00   -.155E-12 0.109E-05 0.309E-05
   -.138E-13 0.550E-14 0.626E-14   0.000E+00 0.000E+00 -.249E-13   -.634E-25 0.761E-25 0.173E-25   0.982E-13 0.424E-13 -.202E-13
 -----------------------------------------------------------------------------------------------
   0.220E-10 -.985E-11 0.281E-09   0.114E-12 0.533E-14 -.817E-13   0.275E-16 0.572E-16 -.358E-14   -.625E-12 0.566E-12 0.609E-12
 
 
 POSITION                                       TOTAL-FORCE (eV/Angst)
 -----------------------------------------------------------------------------------
      1.95150      1.95150     10.56978        -0.000001     -0.000001      0.000009
      5.88866      1.95150     10.56978         0.000001     -0.000001      0.000009
      1.95150      5.88866     10.56978        -0.000001      0.000001      0.000009
      5.88866      5.88866     10.56978         0.000001      0.000001      0.000009
      0.00000      0.00000      8.00164        -0.000000     -0.000000     -0.000001
      3.92008      0.00000      8.01152        -0.000000     -0.000000     -0.000004
      0.00000      3.92008      8.01152        -0.000000     -0.000000     -0.000004
      3.92008      3.92008      8.02267        -0.000000     -0.000000     -0.000010
      0.00000      0.00000      4.37106        -0.000000     -0.000000      0.000001
      3.92008      0.00000      4.36118        -0.000000     -0.000000      0.000004
      0.00000      3.92008      4.36118        -0.000000     -0.000000      0.000004
      3.92008      3.92008      4.35003        -0.000000     -0.000000      0.000010
      1.95150      1.95150      1.80293        -0.000001     -0.000001     -0.000009
      5.88866      1.95150      1.80293         0.000001     -0.000001     -0.000009
      1.95150      5.88866      1.80293        -0.000001      0.000001     -0.000009
      5.88866      5.88866      1.80293         0.000001      0.000001     -0.000009
      3.92008      0.00000      0.00000        -0.000000     -0.000000      0.000000
      0.00000      3.92008      0.00000        -0.000000     -0.000000      0.000000
      3.92008      3.92008      0.00000        -0.000000     -0.000000      0.000000
      1.96112      1.96112      6.18635        -0.000006     -0.000006      0.000000
      5.87904      1.96112      6.18635         0.000006     -0.000006      0.000000
      1.96112      5.87904      6.18635        -0.000006      0.000006      0.000000
      5.87904      5.87904      6.18635         0.000006      0.000006      0.000000
      0.00000      1.95640      9.28539        -0.000000      0.000001      0.000007
      3.92008      1.95745      9.29677        -0.000000      0.000002      0.000002
      0.00000      5.88376      9.28539        -0.000000     -0.000001      0.000007
      3.92008      5.88270      9.29677        -0.000000     -0.000002      0.000002
      1.95640      0.00000      9.28539         0.000001     -0.000000      0.000007
      5.88376      0.00000      9.28539        -0.000001     -0.000000      0.000007
      1.95745      3.92008      9.29677         0.000002     -0.000000      0.000002
      5.88270      3.92008      9.29677        -0.000002     -0.000000      0.000002
      1.95640      0.00000      3.08732         0.000001     -0.000000     -0.000007
      5.88376      0.00000      3.08732        -0.000001     -0.000000     -0.000007
      1.95745      3.92008      3.07593         0.000002     -0.000000     -0.000002
      5.88270      3.92008      3.07593        -0.000002     -0.000000     -0.000002
      0.00000      1.95640      3.08732        -0.000000      0.000001     -0.000007
      3.92008      1.95745      3.07593        -0.000000      0.000002     -0.000002
      0.00000      5.88376      3.08732        -0.000000     -0.000001     -0.000007
      3.92008      5.88270      3.07593        -0.000000     -0.000002     -0.000002
      0.00000      0.00000      0.00000        -0.000000     -0.000000      0.000000
 -----------------------------------------------------------------------------------
    total drift:                                0.000000     -0.000000      0.000000


--------------------------------------------------------------------------------------------------------



  FREE ENERGIE OF THE ION-ELECTRON SYSTEM (eV)
  ---------------------------------------------------
  free  energy   TOTEN  =      -208.85961921 eV

  energy  without entropy=     -208.85961921  energy(sigma->0) =     -208.85961921
 


--------------------------------------------------------------------------------------------------------


    POTLOK:  cpu time      0.8514: real time      0.8515


--------------------------------------------------------------------------------------------------------




--------------------------------------------------------------------------------------------------------


  
 reached required accuracy - stopping structural energy minimisation
     LOOP+:  cpu time    892.4976: real time    892.7036
    4ORBIT:  cpu time      0.0000: real time      0.0000

 total amount of memory used by VASP MPI-rank0    95129. kBytes
=======================================================================

   base      :      30000. kBytes
   nonl-proj :      17369. kBytes
   fftplans  :      13005. kBytes
   grid      :       8308. kBytes
   one-center:         77. kBytes
   wavefun   :      26370. kBytes
 
  
  
 General timing and accounting informations for this job:
 ========================================================
  
                  Total CPU time used (sec):      898.775
                            User time (sec):      894.588
                          System time (sec):        4.187
                         Elapsed time (sec):      898.993
  
                   Maximum memory used (kb):      183396.
                   Average memory used (kb):          N/A
  
                          Minor page faults:        35070
                          Major page faults:            9
                 Voluntary context switches:          118
