<?xml version="1.0" encoding="ISO-8859-1"?>
<modeling>
 <generator>
  <i name="program" type="string">vasp </i>
  <i name="version" type="string">6.4.3  </i>
  <i name="subversion" type="string">19Mar24 (build Apr 09 2025 20:43:19) complex                          parallel </i>
  <i name="platform" type="string">LinuxIFC </i>
  <i name="date" type="string">2025 04 13 </i>
  <i name="time" type="string">18:46:37 </i>
 </generator>
 <incar>
  <i type="string" name="PREC">Accurate</i>
  <i type="int" name="IALGO">    38</i>
  <i type="logical" name="ADDGRID"> T  </i>
  <i type="int" name="NELMIN">     5</i>
  <i type="int" name="IBRION">     2</i>
  <i name="EDIFF">      0.00000001</i>
  <i name="EDIFFG">     -0.00001000</i>
  <i type="int" name="NSW">   100</i>
  <i type="int" name="ISIF">     2</i>
  <i name="ENCUT">    520.00000000</i>
  <i type="logical" name="LREAL"> F  </i>
  <i type="int" name="ISMEAR">     0</i>
  <i name="SIGMA">      0.05000000</i>
  <i type="logical" name="LWAVE"> F  </i>
  <i type="logical" name="LCHARG"> F  </i>
 </incar>
 <primitive_cell>
  <structure name="primitive_cell" >
   <crystal>
    <varray name="basis" >
     <v>       7.84015905       0.00000000       0.00000000 </v>
     <v>       0.00000000       7.84015905       0.00000000 </v>
     <v>       0.00000000       0.00000000      12.37270181 </v>
    </varray>
    <i name="volume">    760.52639654 </i>
    <varray name="rec_basis" >
     <v>       0.12754843       0.00000000       0.00000000 </v>
     <v>       0.00000000       0.12754843       0.00000000 </v>
     <v>       0.00000000       0.00000000       0.08082309 </v>
    </varray>
   </crystal>
   <varray name="positions" >
    <v>       0.24891105       0.24891105       0.85428191 </v>
    <v>       0.75108895       0.24891105       0.85428191 </v>
    <v>       0.24891105       0.75108895       0.85428191 </v>
    <v>       0.75108895       0.75108895       0.85428191 </v>
    <v>       0.00000000       0.00000000       0.64671768 </v>
    <v>       0.50000000       0.00000000       0.64751589 </v>
    <v>       0.00000000       0.50000000       0.64751589 </v>
    <v>       0.50000000       0.50000000       0.64841728 </v>
    <v>       0.00000000       0.00000000       0.35328232 </v>
    <v>       0.50000000       0.00000000       0.35248411 </v>
    <v>       0.00000000       0.50000000       0.35248411 </v>
    <v>       0.50000000       0.50000000       0.35158272 </v>
    <v>       0.24891105       0.24891105       0.14571809 </v>
    <v>       0.75108895       0.24891105       0.14571809 </v>
    <v>       0.24891105       0.75108895       0.14571809 </v>
    <v>       0.75108895       0.75108895       0.14571809 </v>
    <v>       0.50000000       0.00000000       0.00000000 </v>
    <v>       0.00000000       0.50000000       0.00000000 </v>
    <v>       0.50000000       0.50000000       0.00000000 </v>
    <v>       0.25013757       0.25013757       0.50000000 </v>
    <v>       0.74986243       0.25013757       0.50000000 </v>
    <v>       0.25013757       0.74986243       0.50000000 </v>
    <v>       0.74986243       0.74986243       0.50000000 </v>
    <v>       0.00000000       0.24953521       0.75047355 </v>
    <v>       0.50000000       0.24967022       0.75139378 </v>
    <v>       0.00000000       0.75046479       0.75047355 </v>
    <v>       0.50000000       0.75032978       0.75139378 </v>
    <v>       0.24953521       0.00000000       0.75047355 </v>
    <v>       0.75046479       0.00000000       0.75047355 </v>
    <v>       0.24967022       0.50000000       0.75139378 </v>
    <v>       0.75032978       0.50000000       0.75139378 </v>
    <v>       0.24953521       0.00000000       0.24952645 </v>
    <v>       0.75046479       0.00000000       0.24952645 </v>
    <v>       0.24967022       0.50000000       0.24860622 </v>
    <v>       0.75032978       0.50000000       0.24860622 </v>
    <v>       0.00000000       0.24953521       0.24952645 </v>
    <v>       0.50000000       0.24967022       0.24860622 </v>
    <v>       0.00000000       0.75046479       0.24952645 </v>
    <v>       0.50000000       0.75032978       0.24860622 </v>
    <v>       0.00000000       0.00000000       0.00000000 </v>
   </varray>
  </structure>
  <varray name="primitive_index" >
   <v type="int" >        1 </v>
   <v type="int" >        2 </v>
   <v type="int" >        3 </v>
   <v type="int" >        4 </v>
   <v type="int" >        5 </v>
   <v type="int" >        6 </v>
   <v type="int" >        7 </v>
   <v type="int" >        8 </v>
   <v type="int" >        9 </v>
   <v type="int" >       10 </v>
   <v type="int" >       11 </v>
   <v type="int" >       12 </v>
   <v type="int" >       13 </v>
   <v type="int" >       14 </v>
   <v type="int" >       15 </v>
   <v type="int" >       16 </v>
   <v type="int" >       17 </v>
   <v type="int" >       18 </v>
   <v type="int" >       19 </v>
   <v type="int" >       20 </v>
   <v type="int" >       21 </v>
   <v type="int" >       22 </v>
   <v type="int" >       23 </v>
   <v type="int" >       24 </v>
   <v type="int" >       25 </v>
   <v type="int" >       26 </v>
   <v type="int" >       27 </v>
   <v type="int" >       28 </v>
   <v type="int" >       29 </v>
   <v type="int" >       30 </v>
   <v type="int" >       31 </v>
   <v type="int" >       32 </v>
   <v type="int" >       33 </v>
   <v type="int" >       34 </v>
   <v type="int" >       35 </v>
   <v type="int" >       36 </v>
   <v type="int" >       37 </v>
   <v type="int" >       38 </v>
   <v type="int" >       39 </v>
   <v type="int" >       40 </v>
  </varray>
 </primitive_cell>
 <kpoints>
  <generation param="Gamma">
   <v type="int" name="divisions">       4        4        3 </v>
   <v name="usershift">      0.00000000       0.00000000       0.00000000 </v>
   <v name="genvec1">      0.25000000       0.00000000       0.00000000 </v>
   <v name="genvec2">      0.00000000       0.25000000       0.00000000 </v>
   <v name="genvec3">      0.00000000       0.00000000       0.33333333 </v>
   <v name="shift">      0.00000000       0.00000000       0.00000000 </v>
  </generation>
  <varray name="kpointlist" >
   <v>       0.00000000       0.00000000       0.00000000 </v>
   <v>       0.25000000       0.00000000       0.00000000 </v>
   <v>       0.50000000       0.00000000       0.00000000 </v>
   <v>       0.25000000       0.25000000       0.00000000 </v>
   <v>       0.50000000       0.25000000       0.00000000 </v>
   <v>       0.50000000       0.50000000       0.00000000 </v>
   <v>       0.00000000       0.00000000       0.33333333 </v>
   <v>       0.25000000       0.00000000       0.33333333 </v>
   <v>       0.50000000       0.00000000       0.33333333 </v>
   <v>       0.25000000       0.25000000       0.33333333 </v>
   <v>       0.50000000       0.25000000       0.33333333 </v>
   <v>       0.50000000       0.50000000       0.33333333 </v>
  </varray>
  <varray name="weights" >
   <v>       0.02083333 </v>
   <v>       0.08333333 </v>
   <v>       0.04166667 </v>
   <v>       0.08333333 </v>
   <v>       0.08333333 </v>
   <v>       0.02083333 </v>
   <v>       0.04166667 </v>
   <v>       0.16666667 </v>
   <v>       0.08333333 </v>
   <v>       0.16666667 </v>
   <v>       0.16666667 </v>
   <v>       0.04166667 </v>
  </varray>
 </kpoints>
 <parameters>
  <separator name="general" >
   <i type="string" name="SYSTEM">unknown system</i>
   <i type="logical" name="LCOMPAT"> F  </i>
  </separator>
  <separator name="electronic" >
   <i type="string" name="PREC">accura</i>
   <i name="ENMAX">    520.00000000</i>
   <i name="ENAUG">    605.39200000</i>
   <i name="EDIFF">      0.00000001</i>
   <i type="int" name="IALGO">    38</i>
   <i type="int" name="IWAVPR">    11</i>
   <i type="int" name="NBANDS">   232</i>
   <i type="int" name="NBANDSLOW">    -1</i>
   <i type="int" name="NBANDSHIGH">    -1</i>
   <i name="NELECT">    384.00000000</i>
   <i type="int" name="TURBO">     0</i>
   <i type="int" name="IRESTART">     0</i>
   <i type="int" name="NREBOOT">     0</i>
   <i type="int" name="NMIN">     0</i>
   <i name="EREF">      0.00000000</i>
   <separator name="electronic smearing" >
    <i type="int" name="ISMEAR">     0</i>
    <i name="SIGMA">      0.05000000</i>
    <i name="KSPACING">      0.50000000</i>
    <i type="logical" name="KGAMMA"> T  </i>
    <i type="logical" name="KBLOWUP"> T  </i>
   </separator>
   <separator name="electronic projectors" >
    <i type="logical" name="LREAL"> F  </i>
    <v name="ROPT">      0.00000000      0.00000000      0.00000000      0.00000000</v>
    <i type="int" name="LMAXPAW">  -100</i>
    <i type="int" name="LMAXMIX">     2</i>
    <i type="logical" name="NLSPLINE"> F  </i>
   </separator>
   <separator name="electronic startup" >
    <i type="int" name="ISTART">     0</i>
    <i type="int" name="ICHARG">     2</i>
    <i type="int" name="INIWAV">     1</i>
   </separator>
   <separator name="electronic spin" >
    <i type="int" name="ISPIN">     1</i>
    <i type="logical" name="LNONCOLLINEAR"> F  </i>
    <v name="MAGMOM">      1.00000000      1.00000000      1.00000000      1.00000000      1.00000000      1.00000000      1.00000000      1.00000000      1.00000000      1.00000000      1.00000000      1.00000000      1.00000000      1.00000000      1.00000000      1.00000000      1.00000000      1.00000000      1.00000000      1.00000000
      1.00000000      1.00000000      1.00000000      1.00000000      1.00000000      1.00000000      1.00000000      1.00000000      1.00000000      1.00000000      1.00000000      1.00000000      1.00000000      1.00000000      1.00000000      1.00000000      1.00000000      1.00000000      1.00000000      1.00000000
</v>
    <i name="NUPDOWN">     -1.00000000</i>
    <i type="logical" name="LSORBIT"> F  </i>
    <v name="SAXIS">      0.00000000      0.00000000      1.00000000</v>
    <i type="logical" name="LSPIRAL"> F  </i>
    <v name="QSPIRAL">      0.00000000      0.00000000      0.00000000</v>
    <i type="logical" name="LZEROZ"> F  </i>
   </separator>
   <separator name="electronic exchange-correlation" >
    <i type="logical" name="LASPH"> F  </i>
   </separator>
   <separator name="electronic convergence" >
    <i type="int" name="NELM">    60</i>
    <i type="int" name="NELMDL">    -5</i>
    <i type="int" name="NELMIN">     5</i>
    <i name="ENINI">    520.00000000</i>
    <separator name="electronic convergence detail" >
     <i type="logical" name="LDIAG"> T  </i>
     <i type="logical" name="LSUBROT"> F  </i>
     <i name="WEIMIN">      0.00100000</i>
     <i name="EBREAK">      0.00000000</i>
     <i name="DEPER">      0.30000000</i>
     <i type="int" name="NRMM">     4</i>
     <i name="TIME">      0.40000000</i>
    </separator>
   </separator>
   <separator name="electronic mixer" >
    <i name="AMIX">      0.40000000</i>
    <i name="BMIX">      1.00000000</i>
    <i name="AMIN">      0.10000000</i>
    <i name="AMIX_MAG">      1.60000000</i>
    <i name="BMIX_MAG">      1.00000000</i>
    <separator name="electronic mixer details" >
     <i type="int" name="IMIX">     4</i>
     <i type="logical" name="MIXFIRST"> F  </i>
     <i type="int" name="MAXMIX">   -45</i>
     <i name="WC">    100.00000000</i>
     <i type="int" name="INIMIX">     1</i>
     <i type="int" name="MIXPRE">     1</i>
     <i type="int" name="MREMOVE">     5</i>
    </separator>
   </separator>
   <separator name="electronic dipolcorrection" >
    <i type="logical" name="LDIPOL"> F  </i>
    <i type="logical" name="LMONO"> F  </i>
    <i type="int" name="IDIPOL">     0</i>
    <i name="EPSILON">      1.00000000</i>
    <v name="DIPOL">   -100.00000000   -100.00000000   -100.00000000</v>
    <i name="EFIELD">      0.00000000</i>
    <i type="logical" name="LVACPOTAV"> F  </i>
   </separator>
  </separator>
  <separator name="grids" >
   <i type="int" name="NGX">    60</i>
   <i type="int" name="NGY">    60</i>
   <i type="int" name="NGZ">    96</i>
   <i type="int" name="NGXF">   120</i>
   <i type="int" name="NGYF">   120</i>
   <i type="int" name="NGZF">   192</i>
   <i type="logical" name="ADDGRID"> T  </i>
  </separator>
  <separator name="ionic" >
   <i type="int" name="NSW">   100</i>
   <i type="int" name="IBRION">     2</i>
   <i type="int" name="MDALGO">     0</i>
   <i type="int" name="ISIF">     2</i>
   <i name="PSTRESS">      0.00000000</i>
   <i name="EDIFFG">     -0.00001000</i>
   <i type="int" name="NFREE">     1</i>
   <i name="POTIM">      0.50000000</i>
   <i name="SMASS">     -3.00000000</i>
   <i name="SCALEE">      1.00000000</i>
  </separator>
  <separator name="ionic md" >
   <i name="TEBEG">      0.00010000</i>
   <i name="TEEND">      0.00010000</i>
   <i type="int" name="NBLOCK">     1</i>
   <i type="int" name="KBLOCK">   100</i>
   <i type="int" name="NPACO">   256</i>
   <i name="APACO">     10.00000000</i>
  </separator>
  <separator name="symmetry" >
   <i type="int" name="ISYM">     2</i>
   <i name="SYMPREC">      0.00001000</i>
  </separator>
  <separator name="dos" >
   <i type="int" name="LORBIT">     0</i>
   <v name="RWIGS">     -1.00000000     -1.00000000     -1.00000000     -1.00000000</v>
   <i type="int" name="NEDOS">   301</i>
   <i name="EMIN">     10.00000000</i>
   <i name="EMAX">    -10.00000000</i>
   <i name="EFERMI">      0.00000000</i>
  </separator>
  <separator name="writing" >
   <i type="int" name="NWRITE">     2</i>
   <i type="logical" name="LWAVE"> F  </i>
   <i type="logical" name="LDOWNSAMPLE"> F  </i>
   <i type="logical" name="LCHARG"> F  </i>
   <i type="logical" name="LPARD"> F  </i>
   <i type="logical" name="LVTOT"> F  </i>
   <i type="logical" name="LVHAR"> F  </i>
   <i type="logical" name="LELF"> F  </i>
   <i type="logical" name="LOPTICS"> F  </i>
   <v name="STM">      0.00000000      0.00000000      0.00000000      0.00000000      0.00000000      0.00000000      0.00000000</v>
  </separator>
  <separator name="performance" >
   <i type="int" name="NPAR">     4</i>
   <i type="int" name="NSIM">     4</i>
   <i type="int" name="NBLK">    -1</i>
   <i type="logical" name="LPLANE"> T  </i>
   <i type="logical" name="LSCALAPACK"> T  </i>
   <i type="logical" name="LSCAAWARE"> F  </i>
   <i type="logical" name="LSCALU"> F  </i>
   <i type="logical" name="LASYNC"> F  </i>
   <i type="logical" name="LORBITALREAL"> F  </i>
  </separator>
  <separator name="miscellaneous" >
   <i type="int" name="IDIOT">     3</i>
   <i type="int" name="PHON_NSTRUCT">    -1</i>
   <i type="logical" name="LMUSIC"> F  </i>
   <v name="POMASS">    208.98000000     78.96000000     16.00000000     32.06600000</v>
   <v name="DARWINR">      0.00000000      0.00000000      0.00000000      0.00000000</v>
   <v name="DARWINV">      1.00000000      1.00000000      1.00000000      1.00000000</v>
   <i type="logical" name="LCORR"> T  </i>
  </separator>
  <i type="logical" name="GGA_COMPAT"> T  </i>
  <i type="logical" name="LBERRY"> F  </i>
  <i type="int" name="ICORELEVEL">     0</i>
  <i type="logical" name="LDAU"> F  </i>
  <i type="int" name="I_CONSTRAINED_M">     0</i>
  <separator name="electronic exchange-correlation" >
   <i type="string" name="GGA    ">PE</i>
   <i type="string" name="XC_C">1</i>
   <i type="int" name="VOSKOWN">     0</i>
   <i type="logical" name="LHFCALC"> F  </i>
   <i type="string" name="PRECFOCK"></i>
   <i type="logical" name="LSYMGRAD"> F  </i>
   <i type="logical" name="LHFONE"> F  </i>
   <i type="logical" name="LRHFCALC"> F  </i>
   <i type="logical" name="LTHOMAS"> F  </i>
   <i type="logical" name="LMODELHF"> F  </i>
   <i type="logical" name="LFOCKACE"> F  </i>
   <i name="ENCUT4O">     -1.00000000</i>
   <i type="int" name="EXXOEP">     0</i>
   <i type="int" name="FOURORBIT">     0</i>
   <i name="AEXX">      0.00000000</i>
   <i name="HFALPHA">      0.00000000</i>
   <i name="MCALPHA">      0.00000000</i>
   <i name="ALDAX">      1.00000000</i>
   <i name="AGGAX">      1.00000000</i>
   <i name="AMGGAX">      1.00000000</i>
   <i name="ALDAC">      1.00000000</i>
   <i name="AGGAC">      1.00000000</i>
   <i name="AMGGAC">      1.00000000</i>
   <i type="int" name="NKREDX">     1</i>
   <i type="int" name="NKREDY">     1</i>
   <i type="int" name="NKREDZ">     1</i>
   <i type="logical" name="SHIFTRED"> F  </i>
   <i type="logical" name="ODDONLY"> F  </i>
   <i type="logical" name="EVENONLY"> F  </i>
   <i type="int" name="LMAXFOCK">     0</i>
   <i type="int" name="NMAXFOCKAE">     0</i>
   <i type="logical" name="LFOCKAEDFT"> F  </i>
   <i name="HFSCREEN">      0.00000000</i>
   <i name="HFSCREENC">      0.00000000</i>
   <i type="int" name="NBANDSGWLOW">     0</i>
  </separator>
  <separator name="vdW DFT" >
   <i type="logical" name="LUSE_VDW"> F  </i>
   <i type="int" name="IVDW_NL">    -1</i>
   <i type="logical" name="LSPIN_VDW"> F  </i>
   <i name="ZAB_VDW">     -0.84910000</i>
   <i name="GAMMA_VDW">      1.39626340</i>
   <i name="ALPHA_VDW">      0.00000000</i>
   <i name="PARAM1">      0.12340000</i>
   <i name="PARAM2">      1.00000000</i>
   <i name="BPARAM">      6.30000000</i>
   <i name="CPARAM">      0.00930000</i>
  </separator>
  <separator name="model GW" >
   <i type="int" name="MODEL_GW">     0</i>
   <i name="MODEL_EPS0">     11.40789595</i>
   <i name="MODEL_ALPHA">      1.00000000</i>
  </separator>
  <separator name="linear response parameters" >
   <i type="logical" name="LEPSILON"> F  </i>
   <i type="logical" name="LRPA"> F  </i>
   <i type="logical" name="LNABLA"> F  </i>
   <i type="logical" name="LVEL"> F  </i>
   <i name="CSHIFT">      0.10000000</i>
   <i name="OMEGAMAX">     -1.00000000</i>
   <i name="DEG_THRESHOLD">      0.00200000</i>
   <i name="RTIME">     -0.10000000</i>
   <i name="WPLASMAI">      0.00000000</i>
   <v name="DFIELD">      0.00000000      0.00000000      0.00000000</v>
   <v name="WPLASMA">      0.00000000      0.00000000      0.00000000      0.00000000      0.00000000      0.00000000      0.00000000      0.00000000      0.00000000</v>
  </separator>
  <separator name="orbital magnetization" >
   <i type="logical" name="NUCIND"> F  </i>
   <v name="MAGPOS">      0.00000000      0.00000000      0.00000000</v>
   <i type="logical" name="LNICSALL"> T  </i>
   <i type="logical" name="ORBITALMAG"> F  </i>
   <i type="logical" name="LMAGBLOCH"> F  </i>
   <i type="logical" name="LCHIMAG"> F  </i>
   <i type="logical" name="LGAUGE"> T  </i>
   <i type="int" name="MAGATOM">     0</i>
   <v name="MAGDIPOL">      0.00000000      0.00000000      0.00000000</v>
   <v name="AVECCONST">      0.00000000      0.00000000      0.00000000</v>
  </separator>
  <separator name="response functions" >
   <i type="logical" name="LALL_IN_ONE"> F  </i>
   <i type="int" name="IALL_IN_ONE">    -1</i>
   <i type="int" name="NBANDS_WAVE">    -1</i>
   <i type="logical" name="LFINITE_TEMPERATURE"> F  </i>
   <i type="logical" name="LADDER"> F  </i>
   <i type="logical" name="LRPAFORCE"> F  </i>
   <i type="logical" name="LFXC"> F  </i>
   <i type="logical" name="LHARTREE"> T  </i>
   <i type="int" name="IBSE">     0</i>
   <v type="int" name="KPOINT">    -1     0     0     0</v>
   <i type="logical" name="LTCTC"> F  </i>
   <i type="logical" name="LTCTE"> F  </i>
   <i type="logical" name="LTETE"> F  </i>
   <i type="logical" name="LTRIPLET"> F  </i>
   <i type="logical" name="LFXCEPS"> F  </i>
   <i type="logical" name="LFXHEG"> F  </i>
   <i type="int" name="NATURALO">     2</i>
   <i type="logical" name="LHOLEGF"> F  </i>
   <i type="logical" name="L2ORDER"> F  </i>
   <i type="logical" name="LDMP1"> F  </i>
   <i type="logical" name="LMP2LT"> F  </i>
   <i type="logical" name="LSMP2LT"> F  </i>
   <i type="logical" name="LGWLF"> F  </i>
   <i name="ENCUTGW">     -1.60000002</i>
   <i name="ENCUTGWSOFT">     -1.60000002</i>
   <i name="ENCUTLF">     -1.00000000</i>
   <i type="logical" name="ESF_SPLINES"> F  </i>
   <i name="ESF_CONV">      0.01000000</i>
   <i type="int" name="ESF_NINTER">    15</i>
   <i type="int" name="LMAXMP2">    -1</i>
   <i name="SCISSOR">      0.00000000</i>
   <i type="int" name="NOMEGA">     0</i>
   <i type="int" name="NOMEGAR">     0</i>
   <i type="int" name="NBANDSGW">    -1</i>
   <i type="int" name="NBANDSO">    -1</i>
   <i type="int" name="NBANDSV">    -1</i>
   <i type="int" name="NELMGW">     1</i>
   <i type="int" name="NELMHF">     1</i>
   <i type="int" name="DIM">     3</i>
   <i type="int" name="IESPILON">     4</i>
   <i type="int" name="ANTIRES">     0</i>
   <i name="OMEGAMAX">    -30.00000000</i>
   <i name="OMEGAMIN">    -30.00000000</i>
   <i name="OMEGATL">   -200.00000000</i>
   <i type="int" name="OMEGAGRID">     0</i>
   <i name="CSHIFT">     -0.10000000</i>
   <i type="logical" name="LSELFENERGY"> F  </i>
   <i type="logical" name="LSPECTRAL"> F  </i>
   <i type="logical" name="LSPECTRALGW"> F  </i>
   <i type="logical" name="LSINGLES"> F  </i>
   <i type="logical" name="LFERMIGW"> F  </i>
   <i type="logical" name="ODDONLYGW"> F  </i>
   <i type="logical" name="EVENONLYGW"> F  </i>
   <i type="int" name="NKREDLFX">     1</i>
   <i type="int" name="NKREDLFY">     1</i>
   <i type="int" name="NKREDLFZ">     1</i>
   <i type="int" name="MAXMEM">  2800</i>
   <i type="int" name="TELESCOPE">     0</i>
   <i type="int" name="NTAUPAR">    -1</i>
   <i type="int" name="NOMEGAPAR">    -1</i>
   <i name="DAMP_NEWTON">      0.80000001</i>
   <i name="LAMBDA">      1.00000000</i>
  </separator>
  <separator name="External order field" >
   <i name="OFIELD_KAPPA">      0.00000000</i>
   <v name="OFIELD_K">      0.00000000      0.00000000      0.00000000</v>
   <i name="OFIELD_Q6_NEAR">      0.00000000</i>
   <i name="OFIELD_Q6_FAR">      0.00000000</i>
   <i name="OFIELD_A">      0.00000000</i>
  </separator>
  <separator name="optional k-points parameters" >
   <i type="int" name="KPOINTS_OPT_MODE">     1</i>
   <i type="logical" name="LKPOINTS_OPT"> F  </i>
  </separator>
 </parameters>
 <atominfo>
  <atoms>      40 </atoms>
  <types>       4 </types>
  <array name="atoms" >
   <dimension dim="1">ion</dimension>
   <field type="string">element</field>
   <field type="int">atomtype</field>
   <set>
    <rc><c>Bi</c><c>   1</c></rc>
    <rc><c>Bi</c><c>   1</c></rc>
    <rc><c>Bi</c><c>   1</c></rc>
    <rc><c>Bi</c><c>   1</c></rc>
    <rc><c>Bi</c><c>   1</c></rc>
    <rc><c>Bi</c><c>   1</c></rc>
    <rc><c>Bi</c><c>   1</c></rc>
    <rc><c>Bi</c><c>   1</c></rc>
    <rc><c>Bi</c><c>   1</c></rc>
    <rc><c>Bi</c><c>   1</c></rc>
    <rc><c>Bi</c><c>   1</c></rc>
    <rc><c>Bi</c><c>   1</c></rc>
    <rc><c>Bi</c><c>   1</c></rc>
    <rc><c>Bi</c><c>   1</c></rc>
    <rc><c>Bi</c><c>   1</c></rc>
    <rc><c>Bi</c><c>   1</c></rc>
    <rc><c>Se</c><c>   2</c></rc>
    <rc><c>Se</c><c>   2</c></rc>
    <rc><c>Se</c><c>   2</c></rc>
    <rc><c>Se</c><c>   2</c></rc>
    <rc><c>Se</c><c>   2</c></rc>
    <rc><c>Se</c><c>   2</c></rc>
    <rc><c>Se</c><c>   2</c></rc>
    <rc><c>O </c><c>   3</c></rc>
    <rc><c>O </c><c>   3</c></rc>
    <rc><c>O </c><c>   3</c></rc>
    <rc><c>O </c><c>   3</c></rc>
    <rc><c>O </c><c>   3</c></rc>
    <rc><c>O </c><c>   3</c></rc>
    <rc><c>O </c><c>   3</c></rc>
    <rc><c>O </c><c>   3</c></rc>
    <rc><c>O </c><c>   3</c></rc>
    <rc><c>O </c><c>   3</c></rc>
    <rc><c>O </c><c>   3</c></rc>
    <rc><c>O </c><c>   3</c></rc>
    <rc><c>O </c><c>   3</c></rc>
    <rc><c>O </c><c>   3</c></rc>
    <rc><c>O </c><c>   3</c></rc>
    <rc><c>O </c><c>   3</c></rc>
    <rc><c>S </c><c>   4</c></rc>
   </set>
  </array>
  <array name="atomtypes" >
   <dimension dim="1">type</dimension>
   <field type="int">atomspertype</field>
   <field type="string">element</field>
   <field>mass</field>
   <field>valence</field>
   <field type="string">pseudopotential</field>
   <set>
    <rc><c>  16</c><c>Bi</c><c>    208.98000000</c><c>     15.00000000</c><c>  PAW_PBE Bi_d 06Sep2000                </c></rc>
    <rc><c>   7</c><c>Se</c><c>     78.96000000</c><c>      6.00000000</c><c>  PAW_PBE Se 06Sep2000                  </c></rc>
    <rc><c>  16</c><c>O </c><c>     16.00000000</c><c>      6.00000000</c><c>  PAW_PBE O 08Apr2002                   </c></rc>
    <rc><c>   1</c><c>S </c><c>     32.06600000</c><c>      6.00000000</c><c>  PAW_PBE S 06Sep2000                   </c></rc>
   </set>
  </array>
 </atominfo>
 <structure name="initialpos" >
  <crystal>
   <varray name="basis" >
    <v>       7.84015905       0.00000000       0.00000000 </v>
    <v>       0.00000000       7.84015905       0.00000000 </v>
    <v>       0.00000000       0.00000000      12.37270181 </v>
   </varray>
   <i name="volume">    760.52639654 </i>
   <varray name="rec_basis" >
    <v>       0.12754843       0.00000000       0.00000000 </v>
    <v>       0.00000000       0.12754843       0.00000000 </v>
    <v>       0.00000000       0.00000000       0.08082309 </v>
   </varray>
  </crystal>
  <varray name="positions" >
   <v>       0.24891105       0.24891105       0.85428191 </v>
   <v>       0.75108895       0.24891105       0.85428191 </v>
   <v>       0.24891105       0.75108895       0.85428191 </v>
   <v>       0.75108895       0.75108895       0.85428191 </v>
   <v>       0.00000000       0.00000000       0.64671768 </v>
   <v>       0.50000000       0.00000000       0.64751589 </v>
   <v>       0.00000000       0.50000000       0.64751589 </v>
   <v>       0.50000000       0.50000000       0.64841728 </v>
   <v>       0.00000000       0.00000000       0.35328232 </v>
   <v>       0.50000000       0.00000000       0.35248411 </v>
   <v>       0.00000000       0.50000000       0.35248411 </v>
   <v>       0.50000000       0.50000000       0.35158272 </v>
   <v>       0.24891105       0.24891105       0.14571809 </v>
   <v>       0.75108895       0.24891105       0.14571809 </v>
   <v>       0.24891105       0.75108895       0.14571809 </v>
   <v>       0.75108895       0.75108895       0.14571809 </v>
   <v>       0.50000000       0.00000000       0.00000000 </v>
   <v>       0.00000000       0.50000000       0.00000000 </v>
   <v>       0.50000000       0.50000000       0.00000000 </v>
   <v>       0.25013757       0.25013757       0.50000000 </v>
   <v>       0.74986243       0.25013757       0.50000000 </v>
   <v>       0.25013757       0.74986243       0.50000000 </v>
   <v>       0.74986243       0.74986243       0.50000000 </v>
   <v>       0.00000000       0.24953521       0.75047355 </v>
   <v>       0.50000000       0.24967022       0.75139378 </v>
   <v>       0.00000000       0.75046479       0.75047355 </v>
   <v>       0.50000000       0.75032978       0.75139378 </v>
   <v>       0.24953521       0.00000000       0.75047355 </v>
   <v>       0.75046479       0.00000000       0.75047355 </v>
   <v>       0.24967022       0.50000000       0.75139378 </v>
   <v>       0.75032978       0.50000000       0.75139378 </v>
   <v>       0.24953521       0.00000000       0.24952645 </v>
   <v>       0.75046479       0.00000000       0.24952645 </v>
   <v>       0.24967022       0.50000000       0.24860622 </v>
   <v>       0.75032978       0.50000000       0.24860622 </v>
   <v>       0.00000000       0.24953521       0.24952645 </v>
   <v>       0.50000000       0.24967022       0.24860622 </v>
   <v>       0.00000000       0.75046479       0.24952645 </v>
   <v>       0.50000000       0.75032978       0.24860622 </v>
   <v>       0.00000000       0.00000000       0.00000000 </v>
  </varray>
 </structure>
 <calculation>
  <scstep>
   <time name="dav">   32.42   32.43</time>
   <time name="total">   33.27   33.28</time>
   <energy>
    <i name="alphaZ">   1328.23288778 </i>
    <i name="ewald"> -29442.33413256 </i>
    <i name="hartreedc"> -11398.36455459 </i>
    <i name="XCdc">   1234.41268911 </i>
    <i name="pawpsdc">  34040.00696010 </i>
    <i name="pawaedc"> -33495.80632930 </i>
    <i name="eentropy">     -0.00756711 </i>
    <i name="bandstr">   3022.39022199 </i>
    <i name="atom">  40341.65184589 </i>
    <i name="e_fr_energy">   5630.18202133 </i>
    <i name="e_wo_entrp">   5630.18958844 </i>
    <i name="e_0_energy">   5630.18580488 </i>
   </energy>
  </scstep>
  <scstep>
   <time name="dav">   32.52   32.53</time>
   <time name="total">   32.52   32.53</time>
   <energy>
    <i name="e_fr_energy">    957.39479169 </i>
    <i name="e_wo_entrp">    957.40585117 </i>
    <i name="e_0_energy">    957.40032143 </i>
   </energy>
  </scstep>
  <scstep>
   <time name="dav">   35.05   35.05</time>
   <time name="total">   35.05   35.06</time>
   <energy>
    <i name="e_fr_energy">   -112.18816977 </i>
    <i name="e_wo_entrp">   -112.18816977 </i>
    <i name="e_0_energy">   -112.18816977 </i>
   </energy>
  </scstep>
  <scstep>
   <time name="dav">   36.91   36.92</time>
   <time name="total">   36.92   36.92</time>
   <energy>
    <i name="e_fr_energy">   -237.72144319 </i>
    <i name="e_wo_entrp">   -237.72144319 </i>
    <i name="e_0_energy">   -237.72144319 </i>
   </energy>
  </scstep>
  <scstep>
   <time name="dav">   37.00   37.00</time>
   <time name="total">   38.28   38.29</time>
   <energy>
    <i name="e_fr_energy">   -243.34343966 </i>
    <i name="e_wo_entrp">   -243.34343966 </i>
    <i name="e_0_energy">   -243.34343966 </i>
   </energy>
  </scstep>
  <scstep>
   <time name="dav">   41.29   41.30</time>
   <time name="total">   43.43   43.44</time>
   <energy>
    <i name="e_fr_energy">   -208.95524307 </i>
    <i name="e_wo_entrp">   -208.95524307 </i>
    <i name="e_0_energy">   -208.95524307 </i>
   </energy>
  </scstep>
  <scstep>
   <time name="dav">   34.82   34.83</time>
   <time name="total">   36.95   36.97</time>
   <energy>
    <i name="e_fr_energy">   -208.80662685 </i>
    <i name="e_wo_entrp">   -208.80662685 </i>
    <i name="e_0_energy">   -208.80662685 </i>
   </energy>
  </scstep>
  <scstep>
   <time name="dav">   42.51   42.52</time>
   <time name="total">   44.64   44.65</time>
   <energy>
    <i name="e_fr_energy">   -208.94690427 </i>
    <i name="e_wo_entrp">   -208.94690426 </i>
    <i name="e_0_energy">   -208.94690427 </i>
   </energy>
  </scstep>
  <scstep>
   <time name="dav">   40.26   40.27</time>
   <time name="total">   42.39   42.40</time>
   <energy>
    <i name="e_fr_energy">   -208.86952400 </i>
    <i name="e_wo_entrp">   -208.86952400 </i>
    <i name="e_0_energy">   -208.86952400 </i>
   </energy>
  </scstep>
  <scstep>
   <time name="dav">   37.99   37.99</time>
   <time name="total">   40.13   40.13</time>
   <energy>
    <i name="e_fr_energy">   -208.85643378 </i>
    <i name="e_wo_entrp">   -208.85643378 </i>
    <i name="e_0_energy">   -208.85643378 </i>
   </energy>
  </scstep>
  <scstep>
   <time name="dav">   39.25   39.26</time>
   <time name="total">   41.39   41.40</time>
   <energy>
    <i name="e_fr_energy">   -208.85882896 </i>
    <i name="e_wo_entrp">   -208.85882896 </i>
    <i name="e_0_energy">   -208.85882896 </i>
   </energy>
  </scstep>
  <scstep>
   <time name="dav">   41.50   41.50</time>
   <time name="total">   43.63   43.63</time>
   <energy>
    <i name="e_fr_energy">   -208.85973449 </i>
    <i name="e_wo_entrp">   -208.85973449 </i>
    <i name="e_0_energy">   -208.85973449 </i>
   </energy>
  </scstep>
  <scstep>
   <time name="dav">   35.98   35.98</time>
   <time name="total">   38.11   38.11</time>
   <energy>
    <i name="e_fr_energy">   -208.85971258 </i>
    <i name="e_wo_entrp">   -208.85971258 </i>
    <i name="e_0_energy">   -208.85971258 </i>
   </energy>
  </scstep>
  <scstep>
   <time name="dav">   37.86   37.87</time>
   <time name="total">   40.00   40.01</time>
   <energy>
    <i name="e_fr_energy">   -208.85964886 </i>
    <i name="e_wo_entrp">   -208.85964886 </i>
    <i name="e_0_energy">   -208.85964886 </i>
   </energy>
  </scstep>
  <scstep>
   <time name="dav">   43.65   43.65</time>
   <time name="total">   45.79   45.79</time>
   <energy>
    <i name="e_fr_energy">   -208.85962916 </i>
    <i name="e_wo_entrp">   -208.85962916 </i>
    <i name="e_0_energy">   -208.85962916 </i>
   </energy>
  </scstep>
  <scstep>
   <time name="dav">   36.21   36.26</time>
   <time name="total">   38.34   38.39</time>
   <energy>
    <i name="e_fr_energy">   -208.85962686 </i>
    <i name="e_wo_entrp">   -208.85962686 </i>
    <i name="e_0_energy">   -208.85962686 </i>
   </energy>
  </scstep>
  <scstep>
   <time name="dav">   40.76   40.78</time>
   <time name="total">   42.90   42.92</time>
   <energy>
    <i name="e_fr_energy">   -208.85961901 </i>
    <i name="e_wo_entrp">   -208.85961901 </i>
    <i name="e_0_energy">   -208.85961901 </i>
   </energy>
  </scstep>
  <scstep>
   <time name="dav">   34.95   34.95</time>
   <time name="total">   37.08   37.08</time>
   <energy>
    <i name="e_fr_energy">   -208.85961880 </i>
    <i name="e_wo_entrp">   -208.85961880 </i>
    <i name="e_0_energy">   -208.85961880 </i>
   </energy>
  </scstep>
  <scstep>
   <time name="dav">   33.72   33.72</time>
   <time name="total">   35.86   35.86</time>
   <energy>
    <i name="e_fr_energy">   -208.85961892 </i>
    <i name="e_wo_entrp">   -208.85961892 </i>
    <i name="e_0_energy">   -208.85961892 </i>
   </energy>
  </scstep>
  <scstep>
   <time name="dav">   33.18   33.19</time>
   <time name="total">   35.32   35.34</time>
   <energy>
    <i name="e_fr_energy">   -208.85961904 </i>
    <i name="e_wo_entrp">   -208.85961904 </i>
    <i name="e_0_energy">   -208.85961904 </i>
   </energy>
  </scstep>
  <scstep>
   <time name="dav">   28.96   28.96</time>
   <time name="total">   31.10   31.10</time>
   <energy>
    <i name="e_fr_energy">   -208.85961918 </i>
    <i name="e_wo_entrp">   -208.85961918 </i>
    <i name="e_0_energy">   -208.85961918 </i>
   </energy>
  </scstep>
  <scstep>
   <time name="dav">   23.63   23.63</time>
   <time name="total">   25.77   25.77</time>
   <energy>
    <i name="e_fr_energy">   -208.85961920 </i>
    <i name="e_wo_entrp">   -208.85961920 </i>
    <i name="e_0_energy">   -208.85961920 </i>
   </energy>
  </scstep>
  <scstep>
   <time name="dav">   23.47   23.48</time>
   <time name="total">   24.32   24.33</time>
   <energy>
    <i name="alphaZ">   1328.23288778 </i>
    <i name="ewald"> -29442.33413256 </i>
    <i name="hartreedc"> -11560.02019626 </i>
    <i name="XCdc">   1251.48078456 </i>
    <i name="pawpsdc">  36247.57267441 </i>
    <i name="pawaedc"> -35643.61281803 </i>
    <i name="eentropy">     -0.00000000 </i>
    <i name="bandstr">  -2731.83066500 </i>
    <i name="atom">  40341.65184589 </i>
    <i name="e_fr_energy">   -208.85961921 </i>
    <i name="e_wo_entrp">   -208.85961921 </i>
    <i name="e_0_energy">   -208.85961921 </i>
   </energy>
  </scstep>
  <structure>
   <crystal>
    <varray name="basis" >
     <v>       7.84015905       0.00000000       0.00000000 </v>
     <v>       0.00000000       7.84015905       0.00000000 </v>
     <v>       0.00000000       0.00000000      12.37270181 </v>
    </varray>
    <i name="volume">    760.52639654 </i>
    <varray name="rec_basis" >
     <v>       0.12754843       0.00000000       0.00000000 </v>
     <v>       0.00000000       0.12754843       0.00000000 </v>
     <v>       0.00000000       0.00000000       0.08082309 </v>
    </varray>
   </crystal>
   <varray name="positions" >
    <v>       0.24891105       0.24891105       0.85428191 </v>
    <v>       0.75108895       0.24891105       0.85428191 </v>
    <v>       0.24891105       0.75108895       0.85428191 </v>
    <v>       0.75108895       0.75108895       0.85428191 </v>
    <v>       0.00000000       0.00000000       0.64671768 </v>
    <v>       0.50000000       0.00000000       0.64751589 </v>
    <v>       0.00000000       0.50000000       0.64751589 </v>
    <v>       0.50000000       0.50000000       0.64841728 </v>
    <v>       0.00000000       0.00000000       0.35328232 </v>
    <v>       0.50000000       0.00000000       0.35248411 </v>
    <v>       0.00000000       0.50000000       0.35248411 </v>
    <v>       0.50000000       0.50000000       0.35158272 </v>
    <v>       0.24891105       0.24891105       0.14571809 </v>
    <v>       0.75108895       0.24891105       0.14571809 </v>
    <v>       0.24891105       0.75108895       0.14571809 </v>
    <v>       0.75108895       0.75108895       0.14571809 </v>
    <v>       0.50000000       0.00000000       0.00000000 </v>
    <v>       0.00000000       0.50000000       0.00000000 </v>
    <v>       0.50000000       0.50000000       0.00000000 </v>
    <v>       0.25013757       0.25013757       0.50000000 </v>
    <v>       0.74986243       0.25013757       0.50000000 </v>
    <v>       0.25013757       0.74986243       0.50000000 </v>
    <v>       0.74986243       0.74986243       0.50000000 </v>
    <v>       0.00000000       0.24953521       0.75047355 </v>
    <v>       0.50000000       0.24967022       0.75139378 </v>
    <v>       0.00000000       0.75046479       0.75047355 </v>
    <v>       0.50000000       0.75032978       0.75139378 </v>
    <v>       0.24953521       0.00000000       0.75047355 </v>
    <v>       0.75046479       0.00000000       0.75047355 </v>
    <v>       0.24967022       0.50000000       0.75139378 </v>
    <v>       0.75032978       0.50000000       0.75139378 </v>
    <v>       0.24953521       0.00000000       0.24952645 </v>
    <v>       0.75046479       0.00000000       0.24952645 </v>
    <v>       0.24967022       0.50000000       0.24860622 </v>
    <v>       0.75032978       0.50000000       0.24860622 </v>
    <v>       0.00000000       0.24953521       0.24952645 </v>
    <v>       0.50000000       0.24967022       0.24860622 </v>
    <v>       0.00000000       0.75046479       0.24952645 </v>
    <v>       0.50000000       0.75032978       0.24860622 </v>
    <v>       0.00000000       0.00000000       0.00000000 </v>
   </varray>
  </structure>
  <varray name="forces" >
   <v>      -0.00000139      -0.00000139       0.00000918 </v>
   <v>       0.00000139      -0.00000139       0.00000918 </v>
   <v>      -0.00000139       0.00000139       0.00000918 </v>
   <v>       0.00000139       0.00000139       0.00000918 </v>
   <v>      -0.00000000      -0.00000000      -0.00000072 </v>
   <v>      -0.00000000      -0.00000000      -0.00000407 </v>
   <v>      -0.00000000      -0.00000000      -0.00000407 </v>
   <v>      -0.00000000      -0.00000000      -0.00000952 </v>
   <v>      -0.00000000      -0.00000000       0.00000072 </v>
   <v>      -0.00000000      -0.00000000       0.00000407 </v>
   <v>      -0.00000000      -0.00000000       0.00000407 </v>
   <v>      -0.00000000      -0.00000000       0.00000952 </v>
   <v>      -0.00000139      -0.00000139      -0.00000918 </v>
   <v>       0.00000139      -0.00000139      -0.00000918 </v>
   <v>      -0.00000139       0.00000139      -0.00000918 </v>
   <v>       0.00000139       0.00000139      -0.00000918 </v>
   <v>      -0.00000000      -0.00000000       0.00000000 </v>
   <v>      -0.00000000      -0.00000000       0.00000000 </v>
   <v>      -0.00000000      -0.00000000       0.00000000 </v>
   <v>      -0.00000593      -0.00000593       0.00000000 </v>
   <v>       0.00000593      -0.00000593       0.00000000 </v>
   <v>      -0.00000593       0.00000593       0.00000000 </v>
   <v>       0.00000593       0.00000593       0.00000000 </v>
   <v>      -0.00000000       0.00000149       0.00000661 </v>
   <v>      -0.00000000       0.00000177       0.00000164 </v>
   <v>      -0.00000000      -0.00000149       0.00000661 </v>
   <v>      -0.00000000      -0.00000177       0.00000164 </v>
   <v>       0.00000149      -0.00000000       0.00000661 </v>
   <v>      -0.00000149      -0.00000000       0.00000661 </v>
   <v>       0.00000177      -0.00000000       0.00000164 </v>
   <v>      -0.00000177      -0.00000000       0.00000164 </v>
   <v>       0.00000149      -0.00000000      -0.00000661 </v>
   <v>      -0.00000149      -0.00000000      -0.00000661 </v>
   <v>       0.00000177      -0.00000000      -0.00000164 </v>
   <v>      -0.00000177      -0.00000000      -0.00000164 </v>
   <v>      -0.00000000       0.00000149      -0.00000661 </v>
   <v>      -0.00000000       0.00000177      -0.00000164 </v>
   <v>      -0.00000000      -0.00000149      -0.00000661 </v>
   <v>      -0.00000000      -0.00000177      -0.00000164 </v>
   <v>      -0.00000000      -0.00000000       0.00000000 </v>
  </varray>
  <varray name="stress" >
   <v>       0.00046551       0.00000000       0.00000000 </v>
   <v>       0.00000000       0.00046551       0.00000000 </v>
   <v>      -0.00000000       0.00000000       0.00050198 </v>
  </varray>
  <energy>
   <i name="e_fr_energy">   -208.85961921 </i>
   <i name="e_wo_entrp">   -208.85961921 </i>
   <i name="e_0_energy">   -208.85961921 </i>
  </energy>
  <time name="totalsc">  892.50  892.70</time>
  <eigenvalues>
   <array>
    <dimension dim="1">band</dimension>
    <dimension dim="2">kpoint</dimension>
    <dimension dim="3">spin</dimension>
    <field>eigene</field>
    <field>occ</field>
    <set>
     <set comment="spin 1">
      <set comment="kpoint 1">
       <r>  -16.7644    1.0000 </r>
       <r>  -16.7627    1.0000 </r>
       <r>  -16.7624    1.0000 </r>
       <r>  -16.7624    1.0000 </r>
       <r>  -16.7483    1.0000 </r>
       <r>  -16.7483    1.0000 </r>
       <r>  -16.7082    1.0000 </r>
       <r>  -16.7068    1.0000 </r>
       <r>  -16.7043    1.0000 </r>
       <r>  -16.7043    1.0000 </r>
       <r>  -16.6969    1.0000 </r>
       <r>  -16.6950    1.0000 </r>
       <r>  -16.6943    1.0000 </r>
       <r>  -16.6943    1.0000 </r>
       <r>  -16.6216    1.0000 </r>
       <r>  -16.6087    1.0000 </r>
       <r>  -16.6087    1.0000 </r>
       <r>  -16.6024    1.0000 </r>
       <r>  -16.5992    1.0000 </r>
       <r>  -16.5978    1.0000 </r>
       <r>  -16.5978    1.0000 </r>
       <r>  -16.5939    1.0000 </r>
       <r>  -16.5928    1.0000 </r>
       <r>  -16.5880    1.0000 </r>
       <r>  -16.5863    1.0000 </r>
       <r>  -16.5855    1.0000 </r>
       <r>  -16.5848    1.0000 </r>
       <r>  -16.5837    1.0000 </r>
       <r>  -16.5837    1.0000 </r>
       <r>  -16.5833    1.0000 </r>
       <r>  -16.5802    1.0000 </r>
       <r>  -16.5802    1.0000 </r>
       <r>  -16.5746    1.0000 </r>
       <r>  -16.5743    1.0000 </r>
       <r>  -16.5736    1.0000 </r>
       <r>  -16.5736    1.0000 </r>
       <r>  -16.5727    1.0000 </r>
       <r>  -16.5711    1.0000 </r>
       <r>  -16.5711    1.0000 </r>
       <r>  -16.5710    1.0000 </r>
       <r>  -16.5704    1.0000 </r>
       <r>  -16.5668    1.0000 </r>
       <r>  -16.5651    1.0000 </r>
       <r>  -16.5513    1.0000 </r>
       <r>  -16.5510    1.0000 </r>
       <r>  -16.5460    1.0000 </r>
       <r>  -16.5456    1.0000 </r>
       <r>  -16.5456    1.0000 </r>
       <r>  -16.5428    1.0000 </r>
       <r>  -16.5415    1.0000 </r>
       <r>  -16.5407    1.0000 </r>
       <r>  -16.5395    1.0000 </r>
       <r>  -16.5382    1.0000 </r>
       <r>  -16.5382    1.0000 </r>
       <r>  -16.5349    1.0000 </r>
       <r>  -16.5349    1.0000 </r>
       <r>  -16.5273    1.0000 </r>
       <r>  -16.5255    1.0000 </r>
       <r>  -16.5255    1.0000 </r>
       <r>  -16.5249    1.0000 </r>
       <r>  -16.5239    1.0000 </r>
       <r>  -16.5239    1.0000 </r>
       <r>  -16.5230    1.0000 </r>
       <r>  -16.5230    1.0000 </r>
       <r>  -16.5230    1.0000 </r>
       <r>  -16.5216    1.0000 </r>
       <r>  -16.5212    1.0000 </r>
       <r>  -16.5212    1.0000 </r>
       <r>  -16.5200    1.0000 </r>
       <r>  -16.5200    1.0000 </r>
       <r>  -16.5193    1.0000 </r>
       <r>  -16.5193    1.0000 </r>
       <r>  -16.5191    1.0000 </r>
       <r>  -16.5191    1.0000 </r>
       <r>  -16.5183    1.0000 </r>
       <r>  -16.5177    1.0000 </r>
       <r>  -16.5171    1.0000 </r>
       <r>  -16.5155    1.0000 </r>
       <r>  -16.5146    1.0000 </r>
       <r>  -16.5136    1.0000 </r>
       <r>  -13.0392    1.0000 </r>
       <r>  -13.0234    1.0000 </r>
       <r>  -11.7434    1.0000 </r>
       <r>  -11.7434    1.0000 </r>
       <r>  -11.7431    1.0000 </r>
       <r>  -11.7411    1.0000 </r>
       <r>  -11.7341    1.0000 </r>
       <r>  -11.7341    1.0000 </r>
       <r>  -11.7341    1.0000 </r>
       <r>  -11.7317    1.0000 </r>
       <r>  -11.4235    1.0000 </r>
       <r>  -11.4235    1.0000 </r>
       <r>  -11.4178    1.0000 </r>
       <r>  -11.4178    1.0000 </r>
       <r>  -10.6713    1.0000 </r>
       <r>  -10.6710    1.0000 </r>
       <r>   -6.3811    1.0000 </r>
       <r>   -5.8274    1.0000 </r>
       <r>   -5.0829    1.0000 </r>
       <r>   -5.0495    1.0000 </r>
       <r>   -5.0495    1.0000 </r>
       <r>   -4.8881    1.0000 </r>
       <r>   -4.7447    1.0000 </r>
       <r>   -4.6579    1.0000 </r>
       <r>   -4.5708    1.0000 </r>
       <r>   -4.4916    1.0000 </r>
       <r>   -4.4372    1.0000 </r>
       <r>   -4.3783    1.0000 </r>
       <r>   -4.3698    1.0000 </r>
       <r>   -4.1426    1.0000 </r>
       <r>   -4.1426    1.0000 </r>
       <r>   -4.1337    1.0000 </r>
       <r>   -4.1251    1.0000 </r>
       <r>   -3.5964    1.0000 </r>
       <r>   -3.5926    1.0000 </r>
       <r>   -3.5758    1.0000 </r>
       <r>   -3.5758    1.0000 </r>
       <r>   -3.2509    1.0000 </r>
       <r>   -2.2027    1.0000 </r>
       <r>   -1.5339    1.0000 </r>
       <r>    0.9253    1.0000 </r>
       <r>    0.9253    1.0000 </r>
       <r>    1.0054    1.0000 </r>
       <r>    1.0054    1.0000 </r>
       <r>    1.0399    1.0000 </r>
       <r>    1.0399    1.0000 </r>
       <r>    1.4994    1.0000 </r>
       <r>    1.4994    1.0000 </r>
       <r>    1.5009    1.0000 </r>
       <r>    1.5208    1.0000 </r>
       <r>    1.5208    1.0000 </r>
       <r>    1.5500    1.0000 </r>
       <r>    1.6988    1.0000 </r>
       <r>    1.7000    1.0000 </r>
       <r>    1.7000    1.0000 </r>
       <r>    1.7021    1.0000 </r>
       <r>    1.7160    1.0000 </r>
       <r>    1.7487    1.0000 </r>
       <r>    2.2814    1.0000 </r>
       <r>    2.2825    1.0000 </r>
       <r>    2.2854    1.0000 </r>
       <r>    2.2854    1.0000 </r>
       <r>    2.3151    1.0000 </r>
       <r>    2.3165    1.0000 </r>
       <r>    2.3179    1.0000 </r>
       <r>    2.3179    1.0000 </r>
       <r>    2.4795    1.0000 </r>
       <r>    2.4822    1.0000 </r>
       <r>    2.4833    1.0000 </r>
       <r>    2.4833    1.0000 </r>
       <r>    2.6863    1.0000 </r>
       <r>    2.7187    1.0000 </r>
       <r>    3.1581    1.0000 </r>
       <r>    3.1581    1.0000 </r>
       <r>    3.5482    1.0000 </r>
       <r>    3.5596    1.0000 </r>
       <r>    3.7867    1.0000 </r>
       <r>    3.7867    1.0000 </r>
       <r>    3.7885    1.0000 </r>
       <r>    3.7929    1.0000 </r>
       <r>    3.8153    1.0000 </r>
       <r>    3.8153    1.0000 </r>
       <r>    3.8599    1.0000 </r>
       <r>    3.8599    1.0000 </r>
       <r>    3.9658    1.0000 </r>
       <r>    4.4569    1.0000 </r>
       <r>    4.4569    1.0000 </r>
       <r>    4.5025    1.0000 </r>
       <r>    4.5525    1.0000 </r>
       <r>    4.5526    1.0000 </r>
       <r>    4.5556    1.0000 </r>
       <r>    4.5557    1.0000 </r>
       <r>    5.1418    1.0000 </r>
       <r>    5.1863    1.0000 </r>
       <r>    5.1863    1.0000 </r>
       <r>    5.1897    1.0000 </r>
       <r>    5.2057    1.0000 </r>
       <r>    5.3834    1.0000 </r>
       <r>    5.3834    1.0000 </r>
       <r>    5.4576    1.0000 </r>
       <r>    5.4668    1.0000 </r>
       <r>    5.6926    1.0000 </r>
       <r>    5.7479    1.0000 </r>
       <r>    5.7479    1.0000 </r>
       <r>    5.9055    1.0000 </r>
       <r>    5.9080    1.0000 </r>
       <r>    5.9099    1.0000 </r>
       <r>    5.9099    1.0000 </r>
       <r>    6.2411    1.0000 </r>
       <r>    6.2411    1.0000 </r>
       <r>    6.3259    1.0000 </r>
       <r>    6.3277    1.0000 </r>
       <r>    6.7335    0.0000 </r>
       <r>    7.1845    0.0000 </r>
       <r>    7.1845    0.0000 </r>
       <r>    7.3779    0.0000 </r>
       <r>    8.7152    0.0000 </r>
       <r>    8.7247    0.0000 </r>
       <r>    8.7247    0.0000 </r>
       <r>    8.7578    0.0000 </r>
       <r>    9.2940    0.0000 </r>
       <r>    9.2940    0.0000 </r>
       <r>    9.3957    0.0000 </r>
       <r>    9.4181    0.0000 </r>
       <r>    9.4370    0.0000 </r>
       <r>    9.8306    0.0000 </r>
       <r>    9.8539    0.0000 </r>
       <r>    9.8539    0.0000 </r>
       <r>    9.8692    0.0000 </r>
       <r>    9.8692    0.0000 </r>
       <r>    9.8957    0.0000 </r>
       <r>   10.0942    0.0000 </r>
       <r>   10.0942    0.0000 </r>
       <r>   10.2489    0.0000 </r>
       <r>   10.2489    0.0000 </r>
       <r>   10.3097    0.0000 </r>
       <r>   10.3201    0.0000 </r>
       <r>   10.4397    0.0000 </r>
       <r>   10.7253    0.0000 </r>
       <r>   10.7357    0.0000 </r>
       <r>   10.7931    0.0000 </r>
       <r>   10.7931    0.0000 </r>
       <r>   10.8750    0.0000 </r>
       <r>   10.8750    0.0000 </r>
       <r>   10.9545    0.0000 </r>
       <r>   10.9546    0.0000 </r>
       <r>   10.9727    0.0000 </r>
       <r>   11.0266    0.0000 </r>
       <r>   11.1606    0.0000 </r>
       <r>   11.2135    0.0000 </r>
       <r>   11.2163    0.0000 </r>
       <r>   11.2920    0.0000 </r>
      </set>
      <set comment="kpoint 2">
       <r>  -16.7599    1.0000 </r>
       <r>  -16.7576    1.0000 </r>
       <r>  -16.7544    1.0000 </r>
       <r>  -16.7540    1.0000 </r>
       <r>  -16.7407    1.0000 </r>
       <r>  -16.7404    1.0000 </r>
       <r>  -16.7331    1.0000 </r>
       <r>  -16.7252    1.0000 </r>
       <r>  -16.7151    1.0000 </r>
       <r>  -16.7125    1.0000 </r>
       <r>  -16.7031    1.0000 </r>
       <r>  -16.7016    1.0000 </r>
       <r>  -16.6627    1.0000 </r>
       <r>  -16.6503    1.0000 </r>
       <r>  -16.6201    1.0000 </r>
       <r>  -16.6121    1.0000 </r>
       <r>  -16.6053    1.0000 </r>
       <r>  -16.5985    1.0000 </r>
       <r>  -16.5965    1.0000 </r>
       <r>  -16.5960    1.0000 </r>
       <r>  -16.5948    1.0000 </r>
       <r>  -16.5942    1.0000 </r>
       <r>  -16.5932    1.0000 </r>
       <r>  -16.5885    1.0000 </r>
       <r>  -16.5862    1.0000 </r>
       <r>  -16.5846    1.0000 </r>
       <r>  -16.5829    1.0000 </r>
       <r>  -16.5823    1.0000 </r>
       <r>  -16.5816    1.0000 </r>
       <r>  -16.5784    1.0000 </r>
       <r>  -16.5779    1.0000 </r>
       <r>  -16.5775    1.0000 </r>
       <r>  -16.5753    1.0000 </r>
       <r>  -16.5731    1.0000 </r>
       <r>  -16.5696    1.0000 </r>
       <r>  -16.5687    1.0000 </r>
       <r>  -16.5684    1.0000 </r>
       <r>  -16.5683    1.0000 </r>
       <r>  -16.5662    1.0000 </r>
       <r>  -16.5657    1.0000 </r>
       <r>  -16.5654    1.0000 </r>
       <r>  -16.5649    1.0000 </r>
       <r>  -16.5642    1.0000 </r>
       <r>  -16.5581    1.0000 </r>
       <r>  -16.5537    1.0000 </r>
       <r>  -16.5531    1.0000 </r>
       <r>  -16.5523    1.0000 </r>
       <r>  -16.5493    1.0000 </r>
       <r>  -16.5455    1.0000 </r>
       <r>  -16.5455    1.0000 </r>
       <r>  -16.5449    1.0000 </r>
       <r>  -16.5433    1.0000 </r>
       <r>  -16.5401    1.0000 </r>
       <r>  -16.5384    1.0000 </r>
       <r>  -16.5374    1.0000 </r>
       <r>  -16.5366    1.0000 </r>
       <r>  -16.5341    1.0000 </r>
       <r>  -16.5304    1.0000 </r>
       <r>  -16.5299    1.0000 </r>
       <r>  -16.5290    1.0000 </r>
       <r>  -16.5282    1.0000 </r>
       <r>  -16.5266    1.0000 </r>
       <r>  -16.5261    1.0000 </r>
       <r>  -16.5251    1.0000 </r>
       <r>  -16.5242    1.0000 </r>
       <r>  -16.5237    1.0000 </r>
       <r>  -16.5236    1.0000 </r>
       <r>  -16.5233    1.0000 </r>
       <r>  -16.5219    1.0000 </r>
       <r>  -16.5217    1.0000 </r>
       <r>  -16.5217    1.0000 </r>
       <r>  -16.5213    1.0000 </r>
       <r>  -16.5205    1.0000 </r>
       <r>  -16.5198    1.0000 </r>
       <r>  -16.5196    1.0000 </r>
       <r>  -16.5187    1.0000 </r>
       <r>  -16.5185    1.0000 </r>
       <r>  -16.5175    1.0000 </r>
       <r>  -16.5175    1.0000 </r>
       <r>  -16.5162    1.0000 </r>
       <r>  -12.9375    1.0000 </r>
       <r>  -12.9216    1.0000 </r>
       <r>  -12.2269    1.0000 </r>
       <r>  -12.2139    1.0000 </r>
       <r>  -11.7000    1.0000 </r>
       <r>  -11.6985    1.0000 </r>
       <r>  -11.6913    1.0000 </r>
       <r>  -11.6899    1.0000 </r>
       <r>  -11.4742    1.0000 </r>
       <r>  -11.4732    1.0000 </r>
       <r>  -11.4680    1.0000 </r>
       <r>  -11.4669    1.0000 </r>
       <r>  -11.2862    1.0000 </r>
       <r>  -11.2811    1.0000 </r>
       <r>  -10.7358    1.0000 </r>
       <r>  -10.7353    1.0000 </r>
       <r>   -6.2715    1.0000 </r>
       <r>   -5.7454    1.0000 </r>
       <r>   -5.4409    1.0000 </r>
       <r>   -5.1983    1.0000 </r>
       <r>   -4.9972    1.0000 </r>
       <r>   -4.9140    1.0000 </r>
       <r>   -4.7477    1.0000 </r>
       <r>   -4.5969    1.0000 </r>
       <r>   -4.5390    1.0000 </r>
       <r>   -4.4892    1.0000 </r>
       <r>   -4.4535    1.0000 </r>
       <r>   -4.2564    1.0000 </r>
       <r>   -4.2467    1.0000 </r>
       <r>   -4.2001    1.0000 </r>
       <r>   -4.1875    1.0000 </r>
       <r>   -4.0561    1.0000 </r>
       <r>   -4.0337    1.0000 </r>
       <r>   -3.7005    1.0000 </r>
       <r>   -3.6836    1.0000 </r>
       <r>   -3.4583    1.0000 </r>
       <r>   -3.3880    1.0000 </r>
       <r>   -3.0450    1.0000 </r>
       <r>   -2.2874    1.0000 </r>
       <r>   -1.8225    1.0000 </r>
       <r>    0.8821    1.0000 </r>
       <r>    0.8872    1.0000 </r>
       <r>    0.9302    1.0000 </r>
       <r>    1.0129    1.0000 </r>
       <r>    1.0241    1.0000 </r>
       <r>    1.0628    1.0000 </r>
       <r>    1.0995    1.0000 </r>
       <r>    1.1994    1.0000 </r>
       <r>    1.2022    1.0000 </r>
       <r>    1.2967    1.0000 </r>
       <r>    1.3074    1.0000 </r>
       <r>    1.3386    1.0000 </r>
       <r>    1.3417    1.0000 </r>
       <r>    1.4783    1.0000 </r>
       <r>    1.7478    1.0000 </r>
       <r>    1.7946    1.0000 </r>
       <r>    1.9248    1.0000 </r>
       <r>    1.9381    1.0000 </r>
       <r>    2.1124    1.0000 </r>
       <r>    2.1455    1.0000 </r>
       <r>    2.4305    1.0000 </r>
       <r>    2.4318    1.0000 </r>
       <r>    2.4984    1.0000 </r>
       <r>    2.7053    1.0000 </r>
       <r>    2.7108    1.0000 </r>
       <r>    2.7155    1.0000 </r>
       <r>    2.8418    1.0000 </r>
       <r>    2.8719    1.0000 </r>
       <r>    2.9345    1.0000 </r>
       <r>    2.9376    1.0000 </r>
       <r>    2.9535    1.0000 </r>
       <r>    2.9827    1.0000 </r>
       <r>    3.2304    1.0000 </r>
       <r>    3.2402    1.0000 </r>
       <r>    3.5211    1.0000 </r>
       <r>    3.5225    1.0000 </r>
       <r>    3.5255    1.0000 </r>
       <r>    3.6693    1.0000 </r>
       <r>    3.6716    1.0000 </r>
       <r>    3.7281    1.0000 </r>
       <r>    3.7294    1.0000 </r>
       <r>    3.7761    1.0000 </r>
       <r>    3.7993    1.0000 </r>
       <r>    3.8015    1.0000 </r>
       <r>    4.2227    1.0000 </r>
       <r>    4.2874    1.0000 </r>
       <r>    4.2906    1.0000 </r>
       <r>    4.4504    1.0000 </r>
       <r>    4.4535    1.0000 </r>
       <r>    4.5013    1.0000 </r>
       <r>    4.5388    1.0000 </r>
       <r>    4.5425    1.0000 </r>
       <r>    5.0929    1.0000 </r>
       <r>    5.1456    1.0000 </r>
       <r>    5.1549    1.0000 </r>
       <r>    5.1911    1.0000 </r>
       <r>    5.2550    1.0000 </r>
       <r>    5.2552    1.0000 </r>
       <r>    5.3309    1.0000 </r>
       <r>    5.3604    1.0000 </r>
       <r>    5.4741    1.0000 </r>
       <r>    5.5207    1.0000 </r>
       <r>    5.5362    1.0000 </r>
       <r>    5.5895    1.0000 </r>
       <r>    5.6604    1.0000 </r>
       <r>    5.7042    1.0000 </r>
       <r>    5.7468    1.0000 </r>
       <r>    5.7782    1.0000 </r>
       <r>    5.8194    1.0000 </r>
       <r>    5.8562    1.0000 </r>
       <r>    6.0717    1.0000 </r>
       <r>    6.2243    1.0000 </r>
       <r>    7.5262    0.0000 </r>
       <r>    7.7887    0.0000 </r>
       <r>    7.8035    0.0000 </r>
       <r>    7.9280    0.0000 </r>
       <r>    8.8235    0.0000 </r>
       <r>    8.8431    0.0000 </r>
       <r>    8.8519    0.0000 </r>
       <r>    8.8939    0.0000 </r>
       <r>    9.0242    0.0000 </r>
       <r>    9.1558    0.0000 </r>
       <r>    9.1768    0.0000 </r>
       <r>    9.4341    0.0000 </r>
       <r>    9.6834    0.0000 </r>
       <r>    9.6935    0.0000 </r>
       <r>    9.7450    0.0000 </r>
       <r>    9.9256    0.0000 </r>
       <r>    9.9340    0.0000 </r>
       <r>    9.9879    0.0000 </r>
       <r>    9.9904    0.0000 </r>
       <r>   10.0273    0.0000 </r>
       <r>   10.1351    0.0000 </r>
       <r>   10.1852    0.0000 </r>
       <r>   10.2166    0.0000 </r>
       <r>   10.2280    0.0000 </r>
       <r>   10.2868    0.0000 </r>
       <r>   10.2969    0.0000 </r>
       <r>   10.3538    0.0000 </r>
       <r>   10.3696    0.0000 </r>
       <r>   10.3770    0.0000 </r>
       <r>   10.4064    0.0000 </r>
       <r>   10.7174    0.0000 </r>
       <r>   10.9456    0.0000 </r>
       <r>   10.9918    0.0000 </r>
       <r>   11.1008    0.0000 </r>
       <r>   11.1223    0.0000 </r>
       <r>   11.1647    0.0000 </r>
       <r>   11.1657    0.0000 </r>
       <r>   11.2553    0.0000 </r>
       <r>   11.3053    0.0000 </r>
       <r>   11.4458    0.0000 </r>
      </set>
      <set comment="kpoint 3">
       <r>  -16.7507    1.0000 </r>
       <r>  -16.7480    1.0000 </r>
       <r>  -16.7462    1.0000 </r>
       <r>  -16.7434    1.0000 </r>
       <r>  -16.7362    1.0000 </r>
       <r>  -16.7348    1.0000 </r>
       <r>  -16.7338    1.0000 </r>
       <r>  -16.7303    1.0000 </r>
       <r>  -16.7235    1.0000 </r>
       <r>  -16.7218    1.0000 </r>
       <r>  -16.7210    1.0000 </r>
       <r>  -16.7180    1.0000 </r>
       <r>  -16.6187    1.0000 </r>
       <r>  -16.6172    1.0000 </r>
       <r>  -16.6111    1.0000 </r>
       <r>  -16.6100    1.0000 </r>
       <r>  -16.6006    1.0000 </r>
       <r>  -16.5990    1.0000 </r>
       <r>  -16.5985    1.0000 </r>
       <r>  -16.5982    1.0000 </r>
       <r>  -16.5938    1.0000 </r>
       <r>  -16.5925    1.0000 </r>
       <r>  -16.5920    1.0000 </r>
       <r>  -16.5917    1.0000 </r>
       <r>  -16.5908    1.0000 </r>
       <r>  -16.5866    1.0000 </r>
       <r>  -16.5826    1.0000 </r>
       <r>  -16.5818    1.0000 </r>
       <r>  -16.5811    1.0000 </r>
       <r>  -16.5801    1.0000 </r>
       <r>  -16.5782    1.0000 </r>
       <r>  -16.5772    1.0000 </r>
       <r>  -16.5655    1.0000 </r>
       <r>  -16.5650    1.0000 </r>
       <r>  -16.5645    1.0000 </r>
       <r>  -16.5643    1.0000 </r>
       <r>  -16.5641    1.0000 </r>
       <r>  -16.5640    1.0000 </r>
       <r>  -16.5627    1.0000 </r>
       <r>  -16.5626    1.0000 </r>
       <r>  -16.5625    1.0000 </r>
       <r>  -16.5624    1.0000 </r>
       <r>  -16.5616    1.0000 </r>
       <r>  -16.5613    1.0000 </r>
       <r>  -16.5606    1.0000 </r>
       <r>  -16.5588    1.0000 </r>
       <r>  -16.5554    1.0000 </r>
       <r>  -16.5549    1.0000 </r>
       <r>  -16.5530    1.0000 </r>
       <r>  -16.5527    1.0000 </r>
       <r>  -16.5521    1.0000 </r>
       <r>  -16.5505    1.0000 </r>
       <r>  -16.5479    1.0000 </r>
       <r>  -16.5469    1.0000 </r>
       <r>  -16.5378    1.0000 </r>
       <r>  -16.5369    1.0000 </r>
       <r>  -16.5366    1.0000 </r>
       <r>  -16.5355    1.0000 </r>
       <r>  -16.5350    1.0000 </r>
       <r>  -16.5343    1.0000 </r>
       <r>  -16.5340    1.0000 </r>
       <r>  -16.5340    1.0000 </r>
       <r>  -16.5334    1.0000 </r>
       <r>  -16.5323    1.0000 </r>
       <r>  -16.5261    1.0000 </r>
       <r>  -16.5257    1.0000 </r>
       <r>  -16.5238    1.0000 </r>
       <r>  -16.5232    1.0000 </r>
       <r>  -16.5225    1.0000 </r>
       <r>  -16.5222    1.0000 </r>
       <r>  -16.5222    1.0000 </r>
       <r>  -16.5221    1.0000 </r>
       <r>  -16.5220    1.0000 </r>
       <r>  -16.5211    1.0000 </r>
       <r>  -16.5196    1.0000 </r>
       <r>  -16.5193    1.0000 </r>
       <r>  -16.5189    1.0000 </r>
       <r>  -16.5182    1.0000 </r>
       <r>  -16.5170    1.0000 </r>
       <r>  -16.5165    1.0000 </r>
       <r>  -12.6597    1.0000 </r>
       <r>  -12.6448    1.0000 </r>
       <r>  -12.6402    1.0000 </r>
       <r>  -12.6249    1.0000 </r>
       <r>  -11.6042    1.0000 </r>
       <r>  -11.5966    1.0000 </r>
       <r>  -11.5905    1.0000 </r>
       <r>  -11.5884    1.0000 </r>
       <r>  -11.5831    1.0000 </r>
       <r>  -11.5808    1.0000 </r>
       <r>  -11.5754    1.0000 </r>
       <r>  -11.5678    1.0000 </r>
       <r>  -10.9425    1.0000 </r>
       <r>  -10.9406    1.0000 </r>
       <r>  -10.9350    1.0000 </r>
       <r>  -10.9332    1.0000 </r>
       <r>   -5.9709    1.0000 </r>
       <r>   -5.9251    1.0000 </r>
       <r>   -5.5386    1.0000 </r>
       <r>   -5.4656    1.0000 </r>
       <r>   -4.8760    1.0000 </r>
       <r>   -4.8670    1.0000 </r>
       <r>   -4.8663    1.0000 </r>
       <r>   -4.6031    1.0000 </r>
       <r>   -4.3648    1.0000 </r>
       <r>   -4.3619    1.0000 </r>
       <r>   -4.3584    1.0000 </r>
       <r>   -4.3438    1.0000 </r>
       <r>   -4.3214    1.0000 </r>
       <r>   -4.3130    1.0000 </r>
       <r>   -3.9708    1.0000 </r>
       <r>   -3.9704    1.0000 </r>
       <r>   -3.9580    1.0000 </r>
       <r>   -3.9574    1.0000 </r>
       <r>   -3.7354    1.0000 </r>
       <r>   -3.6932    1.0000 </r>
       <r>   -2.5734    1.0000 </r>
       <r>   -2.5660    1.0000 </r>
       <r>   -2.5602    1.0000 </r>
       <r>   -2.5555    1.0000 </r>
       <r>    0.8255    1.0000 </r>
       <r>    0.8401    1.0000 </r>
       <r>    0.8538    1.0000 </r>
       <r>    0.8584    1.0000 </r>
       <r>    0.8717    1.0000 </r>
       <r>    0.8830    1.0000 </r>
       <r>    1.1742    1.0000 </r>
       <r>    1.1822    1.0000 </r>
       <r>    1.1867    1.0000 </r>
       <r>    1.1910    1.0000 </r>
       <r>    1.2303    1.0000 </r>
       <r>    1.2359    1.0000 </r>
       <r>    1.3025    1.0000 </r>
       <r>    1.3186    1.0000 </r>
       <r>    1.3641    1.0000 </r>
       <r>    1.3812    1.0000 </r>
       <r>    2.2347    1.0000 </r>
       <r>    2.2351    1.0000 </r>
       <r>    2.2569    1.0000 </r>
       <r>    2.2616    1.0000 </r>
       <r>    2.6708    1.0000 </r>
       <r>    2.6758    1.0000 </r>
       <r>    2.8580    1.0000 </r>
       <r>    2.8811    1.0000 </r>
       <r>    2.9733    1.0000 </r>
       <r>    2.9942    1.0000 </r>
       <r>    2.9982    1.0000 </r>
       <r>    3.0146    1.0000 </r>
       <r>    3.1952    1.0000 </r>
       <r>    3.2016    1.0000 </r>
       <r>    3.2083    1.0000 </r>
       <r>    3.2152    1.0000 </r>
       <r>    3.3324    1.0000 </r>
       <r>    3.3349    1.0000 </r>
       <r>    3.3739    1.0000 </r>
       <r>    3.3754    1.0000 </r>
       <r>    3.6085    1.0000 </r>
       <r>    3.6117    1.0000 </r>
       <r>    3.6429    1.0000 </r>
       <r>    3.6453    1.0000 </r>
       <r>    3.6475    1.0000 </r>
       <r>    3.6560    1.0000 </r>
       <r>    3.7992    1.0000 </r>
       <r>    3.7997    1.0000 </r>
       <r>    3.8024    1.0000 </r>
       <r>    3.8128    1.0000 </r>
       <r>    4.4419    1.0000 </r>
       <r>    4.4540    1.0000 </r>
       <r>    4.7817    1.0000 </r>
       <r>    4.7894    1.0000 </r>
       <r>    4.7961    1.0000 </r>
       <r>    4.8042    1.0000 </r>
       <r>    4.8858    1.0000 </r>
       <r>    4.8881    1.0000 </r>
       <r>    4.9005    1.0000 </r>
       <r>    4.9018    1.0000 </r>
       <r>    5.1164    1.0000 </r>
       <r>    5.1186    1.0000 </r>
       <r>    5.1199    1.0000 </r>
       <r>    5.1391    1.0000 </r>
       <r>    5.3388    1.0000 </r>
       <r>    5.3527    1.0000 </r>
       <r>    5.3767    1.0000 </r>
       <r>    5.3903    1.0000 </r>
       <r>    5.5181    1.0000 </r>
       <r>    5.5319    1.0000 </r>
       <r>    5.6478    1.0000 </r>
       <r>    5.6662    1.0000 </r>
       <r>    5.7088    1.0000 </r>
       <r>    5.7637    1.0000 </r>
       <r>    5.9825    1.0000 </r>
       <r>    6.0286    1.0000 </r>
       <r>    8.6697    0.0000 </r>
       <r>    8.6828    0.0000 </r>
       <r>    8.7786    0.0000 </r>
       <r>    8.7873    0.0000 </r>
       <r>    8.8503    0.0000 </r>
       <r>    8.8526    0.0000 </r>
       <r>    8.8635    0.0000 </r>
       <r>    8.8848    0.0000 </r>
       <r>    8.9215    0.0000 </r>
       <r>    8.9717    0.0000 </r>
       <r>    8.9801    0.0000 </r>
       <r>    8.9865    0.0000 </r>
       <r>    9.4041    0.0000 </r>
       <r>    9.4091    0.0000 </r>
       <r>    9.4841    0.0000 </r>
       <r>    9.5123    0.0000 </r>
       <r>    9.5887    0.0000 </r>
       <r>    9.5948    0.0000 </r>
       <r>    9.8294    0.0000 </r>
       <r>    9.8350    0.0000 </r>
       <r>   10.1232    0.0000 </r>
       <r>   10.1386    0.0000 </r>
       <r>   10.1532    0.0000 </r>
       <r>   10.1804    0.0000 </r>
       <r>   10.3010    0.0000 </r>
       <r>   10.3586    0.0000 </r>
       <r>   10.3816    0.0000 </r>
       <r>   10.4075    0.0000 </r>
       <r>   10.4085    0.0000 </r>
       <r>   10.4157    0.0000 </r>
       <r>   10.6509    0.0000 </r>
       <r>   10.7057    0.0000 </r>
       <r>   11.1757    0.0000 </r>
       <r>   11.2076    0.0000 </r>
       <r>   11.2208    0.0000 </r>
       <r>   11.2605    0.0000 </r>
       <r>   11.3331    0.0000 </r>
       <r>   11.3385    0.0000 </r>
       <r>   11.6221    0.0000 </r>
       <r>   11.6531    0.0000 </r>
      </set>
      <set comment="kpoint 4">
       <r>  -16.7569    1.0000 </r>
       <r>  -16.7564    1.0000 </r>
       <r>  -16.7536    1.0000 </r>
       <r>  -16.7443    1.0000 </r>
       <r>  -16.7385    1.0000 </r>
       <r>  -16.7367    1.0000 </r>
       <r>  -16.7335    1.0000 </r>
       <r>  -16.7290    1.0000 </r>
       <r>  -16.7280    1.0000 </r>
       <r>  -16.7203    1.0000 </r>
       <r>  -16.6755    1.0000 </r>
       <r>  -16.6738    1.0000 </r>
       <r>  -16.6626    1.0000 </r>
       <r>  -16.6606    1.0000 </r>
       <r>  -16.6180    1.0000 </r>
       <r>  -16.6090    1.0000 </r>
       <r>  -16.6084    1.0000 </r>
       <r>  -16.5968    1.0000 </r>
       <r>  -16.5954    1.0000 </r>
       <r>  -16.5950    1.0000 </r>
       <r>  -16.5933    1.0000 </r>
       <r>  -16.5916    1.0000 </r>
       <r>  -16.5904    1.0000 </r>
       <r>  -16.5851    1.0000 </r>
       <r>  -16.5835    1.0000 </r>
       <r>  -16.5832    1.0000 </r>
       <r>  -16.5825    1.0000 </r>
       <r>  -16.5825    1.0000 </r>
       <r>  -16.5780    1.0000 </r>
       <r>  -16.5771    1.0000 </r>
       <r>  -16.5763    1.0000 </r>
       <r>  -16.5743    1.0000 </r>
       <r>  -16.5739    1.0000 </r>
       <r>  -16.5736    1.0000 </r>
       <r>  -16.5730    1.0000 </r>
       <r>  -16.5689    1.0000 </r>
       <r>  -16.5682    1.0000 </r>
       <r>  -16.5675    1.0000 </r>
       <r>  -16.5670    1.0000 </r>
       <r>  -16.5647    1.0000 </r>
       <r>  -16.5632    1.0000 </r>
       <r>  -16.5632    1.0000 </r>
       <r>  -16.5608    1.0000 </r>
       <r>  -16.5605    1.0000 </r>
       <r>  -16.5580    1.0000 </r>
       <r>  -16.5564    1.0000 </r>
       <r>  -16.5559    1.0000 </r>
       <r>  -16.5551    1.0000 </r>
       <r>  -16.5506    1.0000 </r>
       <r>  -16.5434    1.0000 </r>
       <r>  -16.5426    1.0000 </r>
       <r>  -16.5422    1.0000 </r>
       <r>  -16.5395    1.0000 </r>
       <r>  -16.5392    1.0000 </r>
       <r>  -16.5369    1.0000 </r>
       <r>  -16.5361    1.0000 </r>
       <r>  -16.5358    1.0000 </r>
       <r>  -16.5346    1.0000 </r>
       <r>  -16.5343    1.0000 </r>
       <r>  -16.5334    1.0000 </r>
       <r>  -16.5329    1.0000 </r>
       <r>  -16.5298    1.0000 </r>
       <r>  -16.5294    1.0000 </r>
       <r>  -16.5281    1.0000 </r>
       <r>  -16.5279    1.0000 </r>
       <r>  -16.5270    1.0000 </r>
       <r>  -16.5262    1.0000 </r>
       <r>  -16.5254    1.0000 </r>
       <r>  -16.5253    1.0000 </r>
       <r>  -16.5243    1.0000 </r>
       <r>  -16.5234    1.0000 </r>
       <r>  -16.5230    1.0000 </r>
       <r>  -16.5226    1.0000 </r>
       <r>  -16.5224    1.0000 </r>
       <r>  -16.5208    1.0000 </r>
       <r>  -16.5202    1.0000 </r>
       <r>  -16.5202    1.0000 </r>
       <r>  -16.5194    1.0000 </r>
       <r>  -16.5185    1.0000 </r>
       <r>  -16.5173    1.0000 </r>
       <r>  -12.8394    1.0000 </r>
       <r>  -12.8237    1.0000 </r>
       <r>  -12.1581    1.0000 </r>
       <r>  -12.1569    1.0000 </r>
       <r>  -12.1458    1.0000 </r>
       <r>  -12.1443    1.0000 </r>
       <r>  -11.7135    1.0000 </r>
       <r>  -11.7047    1.0000 </r>
       <r>  -11.3223    1.0000 </r>
       <r>  -11.3177    1.0000 </r>
       <r>  -11.2768    1.0000 </r>
       <r>  -11.2744    1.0000 </r>
       <r>  -11.2721    1.0000 </r>
       <r>  -11.2695    1.0000 </r>
       <r>  -10.7897    1.0000 </r>
       <r>  -10.7890    1.0000 </r>
       <r>   -6.1662    1.0000 </r>
       <r>   -5.6667    1.0000 </r>
       <r>   -5.4070    1.0000 </r>
       <r>   -5.3362    1.0000 </r>
       <r>   -5.1788    1.0000 </r>
       <r>   -5.0701    1.0000 </r>
       <r>   -4.8915    1.0000 </r>
       <r>   -4.7554    1.0000 </r>
       <r>   -4.5311    1.0000 </r>
       <r>   -4.4290    1.0000 </r>
       <r>   -4.3432    1.0000 </r>
       <r>   -4.1611    1.0000 </r>
       <r>   -4.1609    1.0000 </r>
       <r>   -4.1006    1.0000 </r>
       <r>   -4.0972    1.0000 </r>
       <r>   -4.0962    1.0000 </r>
       <r>   -3.9382    1.0000 </r>
       <r>   -3.5408    1.0000 </r>
       <r>   -3.5393    1.0000 </r>
       <r>   -3.5042    1.0000 </r>
       <r>   -3.1758    1.0000 </r>
       <r>   -3.1714    1.0000 </r>
       <r>   -2.3842    1.0000 </r>
       <r>   -2.0625    1.0000 </r>
       <r>    0.6777    1.0000 </r>
       <r>    0.6992    1.0000 </r>
       <r>    0.7931    1.0000 </r>
       <r>    0.8126    1.0000 </r>
       <r>    0.8814    1.0000 </r>
       <r>    0.9070    1.0000 </r>
       <r>    1.0178    1.0000 </r>
       <r>    1.0190    1.0000 </r>
       <r>    1.2859    1.0000 </r>
       <r>    1.3014    1.0000 </r>
       <r>    1.4006    1.0000 </r>
       <r>    1.4663    1.0000 </r>
       <r>    1.6371    1.0000 </r>
       <r>    1.6410    1.0000 </r>
       <r>    1.7318    1.0000 </r>
       <r>    1.9691    1.0000 </r>
       <r>    1.9810    1.0000 </r>
       <r>    2.2105    1.0000 </r>
       <r>    2.2184    1.0000 </r>
       <r>    2.2701    1.0000 </r>
       <r>    2.2737    1.0000 </r>
       <r>    2.5131    1.0000 </r>
       <r>    2.5246    1.0000 </r>
       <r>    2.5420    1.0000 </r>
       <r>    2.6633    1.0000 </r>
       <r>    2.6653    1.0000 </r>
       <r>    2.7722    1.0000 </r>
       <r>    2.8961    1.0000 </r>
       <r>    2.9025    1.0000 </r>
       <r>    2.9064    1.0000 </r>
       <r>    3.0489    1.0000 </r>
       <r>    3.0835    1.0000 </r>
       <r>    3.1976    1.0000 </r>
       <r>    3.2846    1.0000 </r>
       <r>    3.4291    1.0000 </r>
       <r>    3.4776    1.0000 </r>
       <r>    3.4783    1.0000 </r>
       <r>    3.5080    1.0000 </r>
       <r>    3.7658    1.0000 </r>
       <r>    3.7664    1.0000 </r>
       <r>    3.7748    1.0000 </r>
       <r>    4.0538    1.0000 </r>
       <r>    4.0671    1.0000 </r>
       <r>    4.1398    1.0000 </r>
       <r>    4.1414    1.0000 </r>
       <r>    4.3030    1.0000 </r>
       <r>    4.3667    1.0000 </r>
       <r>    4.4666    1.0000 </r>
       <r>    4.4789    1.0000 </r>
       <r>    4.4837    1.0000 </r>
       <r>    4.5936    1.0000 </r>
       <r>    4.7419    1.0000 </r>
       <r>    4.7673    1.0000 </r>
       <r>    5.0326    1.0000 </r>
       <r>    5.0471    1.0000 </r>
       <r>    5.2364    1.0000 </r>
       <r>    5.2371    1.0000 </r>
       <r>    5.2453    1.0000 </r>
       <r>    5.3210    1.0000 </r>
       <r>    5.3373    1.0000 </r>
       <r>    5.3433    1.0000 </r>
       <r>    5.3464    1.0000 </r>
       <r>    5.3886    1.0000 </r>
       <r>    5.3908    1.0000 </r>
       <r>    5.4595    1.0000 </r>
       <r>    5.5020    1.0000 </r>
       <r>    5.5470    1.0000 </r>
       <r>    5.8924    1.0000 </r>
       <r>    5.8990    1.0000 </r>
       <r>    5.9274    1.0000 </r>
       <r>    6.0897    1.0000 </r>
       <r>    6.1153    1.0000 </r>
       <r>    7.8556    0.0000 </r>
       <r>    8.0793    0.0000 </r>
       <r>    8.2674    0.0000 </r>
       <r>    8.2700    0.0000 </r>
       <r>    8.4380    0.0000 </r>
       <r>    8.5201    0.0000 </r>
       <r>    8.5234    0.0000 </r>
       <r>    8.9955    0.0000 </r>
       <r>    9.3140    0.0000 </r>
       <r>    9.3765    0.0000 </r>
       <r>    9.4107    0.0000 </r>
       <r>    9.4670    0.0000 </r>
       <r>    9.5085    0.0000 </r>
       <r>    9.6825    0.0000 </r>
       <r>    9.7092    0.0000 </r>
       <r>    9.7366    0.0000 </r>
       <r>    9.7411    0.0000 </r>
       <r>    9.7469    0.0000 </r>
       <r>    9.7627    0.0000 </r>
       <r>    9.8380    0.0000 </r>
       <r>   10.0089    0.0000 </r>
       <r>   10.1208    0.0000 </r>
       <r>   10.1516    0.0000 </r>
       <r>   10.2765    0.0000 </r>
       <r>   10.2777    0.0000 </r>
       <r>   10.3151    0.0000 </r>
       <r>   10.3960    0.0000 </r>
       <r>   10.4433    0.0000 </r>
       <r>   10.5043    0.0000 </r>
       <r>   10.8061    0.0000 </r>
       <r>   10.9364    0.0000 </r>
       <r>   10.9463    0.0000 </r>
       <r>   10.9779    0.0000 </r>
       <r>   11.0304    0.0000 </r>
       <r>   11.1113    0.0000 </r>
       <r>   11.1143    0.0000 </r>
       <r>   11.1536    0.0000 </r>
       <r>   11.1618    0.0000 </r>
       <r>   11.2429    0.0000 </r>
       <r>   11.2837    0.0000 </r>
      </set>
      <set comment="kpoint 5">
       <r>  -16.7510    1.0000 </r>
       <r>  -16.7482    1.0000 </r>
       <r>  -16.7478    1.0000 </r>
       <r>  -16.7452    1.0000 </r>
       <r>  -16.7452    1.0000 </r>
       <r>  -16.7424    1.0000 </r>
       <r>  -16.7379    1.0000 </r>
       <r>  -16.7353    1.0000 </r>
       <r>  -16.7052    1.0000 </r>
       <r>  -16.7029    1.0000 </r>
       <r>  -16.6912    1.0000 </r>
       <r>  -16.6890    1.0000 </r>
       <r>  -16.6264    1.0000 </r>
       <r>  -16.6250    1.0000 </r>
       <r>  -16.6137    1.0000 </r>
       <r>  -16.6128    1.0000 </r>
       <r>  -16.6126    1.0000 </r>
       <r>  -16.6110    1.0000 </r>
       <r>  -16.6024    1.0000 </r>
       <r>  -16.6013    1.0000 </r>
       <r>  -16.5914    1.0000 </r>
       <r>  -16.5910    1.0000 </r>
       <r>  -16.5899    1.0000 </r>
       <r>  -16.5890    1.0000 </r>
       <r>  -16.5883    1.0000 </r>
       <r>  -16.5848    1.0000 </r>
       <r>  -16.5796    1.0000 </r>
       <r>  -16.5787    1.0000 </r>
       <r>  -16.5785    1.0000 </r>
       <r>  -16.5774    1.0000 </r>
       <r>  -16.5766    1.0000 </r>
       <r>  -16.5756    1.0000 </r>
       <r>  -16.5699    1.0000 </r>
       <r>  -16.5696    1.0000 </r>
       <r>  -16.5677    1.0000 </r>
       <r>  -16.5676    1.0000 </r>
       <r>  -16.5659    1.0000 </r>
       <r>  -16.5650    1.0000 </r>
       <r>  -16.5647    1.0000 </r>
       <r>  -16.5630    1.0000 </r>
       <r>  -16.5578    1.0000 </r>
       <r>  -16.5576    1.0000 </r>
       <r>  -16.5566    1.0000 </r>
       <r>  -16.5564    1.0000 </r>
       <r>  -16.5562    1.0000 </r>
       <r>  -16.5549    1.0000 </r>
       <r>  -16.5516    1.0000 </r>
       <r>  -16.5515    1.0000 </r>
       <r>  -16.5512    1.0000 </r>
       <r>  -16.5504    1.0000 </r>
       <r>  -16.5493    1.0000 </r>
       <r>  -16.5487    1.0000 </r>
       <r>  -16.5474    1.0000 </r>
       <r>  -16.5473    1.0000 </r>
       <r>  -16.5467    1.0000 </r>
       <r>  -16.5451    1.0000 </r>
       <r>  -16.5386    1.0000 </r>
       <r>  -16.5370    1.0000 </r>
       <r>  -16.5361    1.0000 </r>
       <r>  -16.5350    1.0000 </r>
       <r>  -16.5343    1.0000 </r>
       <r>  -16.5339    1.0000 </r>
       <r>  -16.5331    1.0000 </r>
       <r>  -16.5325    1.0000 </r>
       <r>  -16.5315    1.0000 </r>
       <r>  -16.5312    1.0000 </r>
       <r>  -16.5300    1.0000 </r>
       <r>  -16.5298    1.0000 </r>
       <r>  -16.5249    1.0000 </r>
       <r>  -16.5245    1.0000 </r>
       <r>  -16.5239    1.0000 </r>
       <r>  -16.5239    1.0000 </r>
       <r>  -16.5238    1.0000 </r>
       <r>  -16.5232    1.0000 </r>
       <r>  -16.5216    1.0000 </r>
       <r>  -16.5214    1.0000 </r>
       <r>  -16.5207    1.0000 </r>
       <r>  -16.5201    1.0000 </r>
       <r>  -16.5188    1.0000 </r>
       <r>  -16.5183    1.0000 </r>
       <r>  -12.5724    1.0000 </r>
       <r>  -12.5577    1.0000 </r>
       <r>  -12.5531    1.0000 </r>
       <r>  -12.5381    1.0000 </r>
       <r>  -11.9767    1.0000 </r>
       <r>  -11.9657    1.0000 </r>
       <r>  -11.9593    1.0000 </r>
       <r>  -11.9482    1.0000 </r>
       <r>  -11.2759    1.0000 </r>
       <r>  -11.2716    1.0000 </r>
       <r>  -11.2630    1.0000 </r>
       <r>  -11.2588    1.0000 </r>
       <r>  -10.9689    1.0000 </r>
       <r>  -10.9669    1.0000 </r>
       <r>  -10.9607    1.0000 </r>
       <r>  -10.9587    1.0000 </r>
       <r>   -5.8776    1.0000 </r>
       <r>   -5.8356    1.0000 </r>
       <r>   -5.4685    1.0000 </r>
       <r>   -5.4157    1.0000 </r>
       <r>   -5.1911    1.0000 </r>
       <r>   -5.1396    1.0000 </r>
       <r>   -5.0322    1.0000 </r>
       <r>   -4.8558    1.0000 </r>
       <r>   -4.3575    1.0000 </r>
       <r>   -4.3344    1.0000 </r>
       <r>   -4.3264    1.0000 </r>
       <r>   -4.3141    1.0000 </r>
       <r>   -4.2452    1.0000 </r>
       <r>   -4.2415    1.0000 </r>
       <r>   -3.8437    1.0000 </r>
       <r>   -3.8159    1.0000 </r>
       <r>   -3.7804    1.0000 </r>
       <r>   -3.7534    1.0000 </r>
       <r>   -3.5193    1.0000 </r>
       <r>   -3.5159    1.0000 </r>
       <r>   -2.7088    1.0000 </r>
       <r>   -2.7022    1.0000 </r>
       <r>   -2.6940    1.0000 </r>
       <r>   -2.6869    1.0000 </r>
       <r>    0.5957    1.0000 </r>
       <r>    0.5995    1.0000 </r>
       <r>    0.6684    1.0000 </r>
       <r>    0.6694    1.0000 </r>
       <r>    0.7063    1.0000 </r>
       <r>    0.7085    1.0000 </r>
       <r>    0.9249    1.0000 </r>
       <r>    0.9371    1.0000 </r>
       <r>    1.2655    1.0000 </r>
       <r>    1.2791    1.0000 </r>
       <r>    1.7129    1.0000 </r>
       <r>    1.7221    1.0000 </r>
       <r>    1.8044    1.0000 </r>
       <r>    1.8155    1.0000 </r>
       <r>    1.8254    1.0000 </r>
       <r>    1.8386    1.0000 </r>
       <r>    1.9826    1.0000 </r>
       <r>    2.0123    1.0000 </r>
       <r>    2.3291    1.0000 </r>
       <r>    2.3499    1.0000 </r>
       <r>    2.5143    1.0000 </r>
       <r>    2.5200    1.0000 </r>
       <r>    2.5975    1.0000 </r>
[...]
       <r>    5.9548    1.0000 </r>
       <r>    5.9702    1.0000 </r>
       <r>    7.9859    0.0000 </r>
       <r>    8.0129    0.0000 </r>
       <r>    8.0129    0.0000 </r>
       <r>    8.0468    0.0000 </r>
       <r>    8.7429    0.0000 </r>
       <r>    8.7732    0.0000 </r>
       <r>    8.7732    0.0000 </r>
       <r>    8.8058    0.0000 </r>
       <r>    9.2138    0.0000 </r>
       <r>    9.2237    0.0000 </r>
       <r>    9.2435    0.0000 </r>
       <r>    9.2435    0.0000 </r>
       <r>    9.5229    0.0000 </r>
       <r>    9.5383    0.0000 </r>
       <r>    9.5646    0.0000 </r>
       <r>    9.5646    0.0000 </r>
       <r>    9.7500    0.0000 </r>
       <r>    9.7500    0.0000 </r>
       <r>    9.7823    0.0000 </r>
       <r>    9.8182    0.0000 </r>
       <r>    9.8184    0.0000 </r>
       <r>    9.8233    0.0000 </r>
       <r>    9.8233    0.0000 </r>
       <r>    9.8456    0.0000 </r>
       <r>   10.6544    0.0000 </r>
       <r>   10.6544    0.0000 </r>
       <r>   10.6730    0.0000 </r>
       <r>   10.6897    0.0000 </r>
       <r>   10.7215    0.0000 </r>
       <r>   10.7215    0.0000 </r>
       <r>   10.7217    0.0000 </r>
       <r>   10.7294    0.0000 </r>
       <r>   11.2994    0.0000 </r>
       <r>   11.3174    0.0000 </r>
       <r>   11.3180    0.0000 </r>
       <r>   11.3823    0.0000 </r>
       <r>   11.3916    0.0000 </r>
       <r>   11.4063    0.0000 </r>
       <r>   11.4257    0.0000 </r>
       <r>   11.5129    0.0000 </r>
      </set>
     </set>
    </set>
   </array>
  </eigenvalues>
  <separator name="orbital magnetization" >
   <v name="MAGDIPOLOUT">      0.00000000      0.00000000      0.00000000</v>
  </separator>
  <dos>
   <i name="efermi">      6.53627526 </i>
   <total>
    <array>
     <dimension dim="1">gridpoints</dimension>
     <dimension dim="2">spin</dimension>
     <field>energy</field>
     <field>total</field>
     <field>integrated</field>
     <set>
      <set comment="spin 1">
       <r>   -18.1853     0.0000     0.0000 </r>
       <r>   -18.0811     0.0000     0.0000 </r>
       <r>   -17.9769     0.0000     0.0000 </r>
       <r>   -17.8727     0.0000     0.0000 </r>
       <r>   -17.7685     0.0000     0.0000 </r>
       <r>   -17.6643     0.0000     0.0000 </r>
       <r>   -17.5601     0.0000     0.0000 </r>
       <r>   -17.4559     0.0000     0.0000 </r>
       <r>   -17.3517     0.0000     0.0000 </r>
       <r>   -17.2475     0.0000     0.0000 </r>
       <r>   -17.1433     0.0000     0.0000 </r>
       <r>   -17.0391     0.0000     0.0000 </r>
       <r>   -16.9349     0.0000     0.0000 </r>
       <r>   -16.8307     1.4134     0.1473 </r>
       <r>   -16.7265   125.4431    13.2181 </r>
       <r>   -16.6223   219.3592    36.0748 </r>
       <r>   -16.5181   919.7935   131.9149 </r>
       <r>   -16.4139   269.1068   159.9551 </r>
       <r>   -16.3097     0.4311   160.0000 </r>
       <r>   -16.2055     0.0000   160.0000 </r>
       <r>   -16.1013     0.0000   160.0000 </r>
       <r>   -15.9971     0.0000   160.0000 </r>
       <r>   -15.8929     0.0000   160.0000 </r>
       <r>   -15.7887     0.0000   160.0000 </r>
       <r>   -15.6845     0.0000   160.0000 </r>
       <r>   -15.5803     0.0000   160.0000 </r>
       <r>   -15.4761     0.0000   160.0000 </r>
       <r>   -15.3719     0.0000   160.0000 </r>
       <r>   -15.2677     0.0000   160.0000 </r>
       <r>   -15.1635     0.0000   160.0000 </r>
       <r>   -15.0593     0.0000   160.0000 </r>
       <r>   -14.9551     0.0000   160.0000 </r>
       <r>   -14.8510     0.0000   160.0000 </r>
       <r>   -14.7468     0.0000   160.0000 </r>
       <r>   -14.6426     0.0000   160.0000 </r>
       <r>   -14.5384     0.0000   160.0000 </r>
       <r>   -14.4342     0.0000   160.0000 </r>
       <r>   -14.3300     0.0000   160.0000 </r>
       <r>   -14.2258     0.0000   160.0000 </r>
       <r>   -14.1216     0.0000   160.0000 </r>
       <r>   -14.0174     0.0000   160.0000 </r>
       <r>   -13.9132     0.0000   160.0000 </r>
       <r>   -13.8090     0.0000   160.0000 </r>
       <r>   -13.7048     0.0000   160.0000 </r>
       <r>   -13.6006     0.0000   160.0000 </r>
       <r>   -13.4964     0.0000   160.0000 </r>
       <r>   -13.3922     0.0000   160.0000 </r>
       <r>   -13.2880     0.0000   160.0000 </r>
       <r>   -13.1838     0.0000   160.0000 </r>
       <r>   -13.0796     0.2131   160.0222 </r>
       <r>   -12.9754     3.0061   160.3354 </r>
       <r>   -12.8712     9.5686   161.3325 </r>
       <r>   -12.7670     8.4674   162.2147 </r>
       <r>   -12.6628     3.1716   162.5452 </r>
       <r>   -12.5586    15.5746   164.1680 </r>
       <r>   -12.4544    10.3236   165.2437 </r>
       <r>   -12.3502     1.5526   165.4055 </r>
       <r>   -12.2460    10.0399   166.4516 </r>
       <r>   -12.1418    19.1310   168.4450 </r>
       <r>   -12.0376     8.0970   169.2887 </r>
       <r>   -11.9334    14.7182   170.8223 </r>
       <r>   -11.8292     4.1564   171.2554 </r>
       <r>   -11.7250    13.0730   172.6176 </r>
       <r>   -11.6208    28.1370   175.5494 </r>
       <r>   -11.5166    17.6144   177.3848 </r>
       <r>   -11.4124    19.8155   179.4495 </r>
       <r>   -11.3082    16.8123   181.2013 </r>
       <r>   -11.2040    42.2909   185.6079 </r>
       <r>   -11.0998     2.7396   185.8933 </r>
       <r>   -10.9956    11.9538   187.1389 </r>
       <r>   -10.8915    23.7523   189.6138 </r>
       <r>   -10.7873     7.0307   190.3464 </r>
       <r>   -10.6831    13.6874   191.7726 </r>
       <r>   -10.5789     2.1717   191.9989 </r>
       <r>   -10.4747     0.0107   192.0000 </r>
       <r>   -10.3705     0.0000   192.0000 </r>
       <r>   -10.2663     0.0000   192.0000 </r>
       <r>   -10.1621     0.0000   192.0000 </r>
       <r>   -10.0579     0.0000   192.0000 </r>
       <r>    -9.9537     0.0000   192.0000 </r>
       <r>    -9.8495     0.0000   192.0000 </r>
       <r>    -9.7453     0.0000   192.0000 </r>
       <r>    -9.6411     0.0000   192.0000 </r>
       <r>    -9.5369     0.0000   192.0000 </r>
       <r>    -9.4327     0.0000   192.0000 </r>
       <r>    -9.3285     0.0000   192.0000 </r>
       <r>    -9.2243     0.0000   192.0000 </r>
       <r>    -9.1201     0.0000   192.0000 </r>
       <r>    -9.0159     0.0000   192.0000 </r>
       <r>    -8.9117     0.0000   192.0000 </r>
       <r>    -8.8075     0.0000   192.0000 </r>
       <r>    -8.7033     0.0000   192.0000 </r>
       <r>    -8.5991     0.0000   192.0000 </r>
       <r>    -8.4949     0.0000   192.0000 </r>
       <r>    -8.3907     0.0000   192.0000 </r>
       <r>    -8.2865     0.0000   192.0000 </r>
       <r>    -8.1823     0.0000   192.0000 </r>
       <r>    -8.0781     0.0000   192.0000 </r>
       <r>    -7.9739     0.0000   192.0000 </r>
       <r>    -7.8697     0.0000   192.0000 </r>
       <r>    -7.7655     0.0000   192.0000 </r>
       <r>    -7.6613     0.0000   192.0000 </r>
       <r>    -7.5571     0.0000   192.0000 </r>
       <r>    -7.4529     0.0000   192.0000 </r>
       <r>    -7.3487     0.0000   192.0000 </r>
       <r>    -7.2445     0.0000   192.0000 </r>
       <r>    -7.1403     0.0000   192.0000 </r>
       <r>    -7.0361     0.0000   192.0000 </r>
       <r>    -6.9319     0.0000   192.0000 </r>
       <r>    -6.8278     0.0000   192.0000 </r>
       <r>    -6.7236     0.0000   192.0000 </r>
       <r>    -6.6194     0.0000   192.0000 </r>
       <r>    -6.5152     0.0000   192.0000 </r>
       <r>    -6.4110     0.0796   192.0083 </r>
       <r>    -6.3068     0.7338   192.0848 </r>
       <r>    -6.2026     2.8002   192.3765 </r>
       <r>    -6.0984     4.5875   192.8545 </r>
       <r>    -5.9942     3.3769   193.2064 </r>
       <r>    -5.8900     5.7148   193.8019 </r>
       <r>    -5.7858    11.3537   194.9849 </r>
       <r>    -5.6816     6.9388   195.7079 </r>
       <r>    -5.5774     7.3952   196.4785 </r>
       <r>    -5.4732     9.1878   197.4358 </r>
       <r>    -5.3690    11.1279   198.5953 </r>
       <r>    -5.2648    11.3085   199.7736 </r>
       <r>    -5.1606    11.4150   200.9630 </r>
       <r>    -5.0564    15.8317   202.6127 </r>
       <r>    -4.9522    10.3551   203.6916 </r>
       <r>    -4.8480    18.4250   205.6115 </r>
       <r>    -4.7438     9.7627   206.6287 </r>
       <r>    -4.6396     6.6889   207.3257 </r>
       <r>    -4.5354    13.4349   208.7255 </r>
       <r>    -4.4312    13.4070   210.1225 </r>
       <r>    -4.3270    22.7003   212.4878 </r>
       <r>    -4.2228    31.3333   215.7527 </r>
       <r>    -4.1186    42.4819   220.1792 </r>
       <r>    -4.0144    26.7924   222.9709 </r>
       <r>    -3.9102    18.8080   224.9306 </r>
       <r>    -3.8060     8.9435   225.8625 </r>
       <r>    -3.7018    14.8033   227.4050 </r>
       <r>    -3.5976    16.9351   229.1696 </r>
       <r>    -3.4934    15.0600   230.7388 </r>
       <r>    -3.3892     9.5501   231.7339 </r>
       <r>    -3.2850     5.6498   232.3226 </r>
       <r>    -3.1808     7.6885   233.1237 </r>
       <r>    -3.0766    10.4844   234.2161 </r>
       <r>    -2.9724     5.0231   234.7395 </r>
       <r>    -2.8683     0.1004   234.7500 </r>
       <r>    -2.7641     0.7667   234.8299 </r>
       <r>    -2.6599    15.9920   236.4962 </r>
       <r>    -2.5557     8.2444   237.3553 </r>
       <r>    -2.4515     3.8268   237.7540 </r>
       <r>    -2.3473     1.4903   237.9093 </r>
       <r>    -2.2431     4.2890   238.3562 </r>
       <r>    -2.1389     3.3001   238.7001 </r>
       <r>    -2.0347     5.3147   239.2538 </r>
       <r>    -1.9305     1.8291   239.4444 </r>
       <r>    -1.8263     3.2314   239.7811 </r>
       <r>    -1.7221     0.9141   239.8764 </r>
       <r>    -1.6179     0.6460   239.9437 </r>
       <r>    -1.5137     0.4269   239.9882 </r>
       <r>    -1.4095     0.1133   240.0000 </r>
       <r>    -1.3053     0.0001   240.0000 </r>
       <r>    -1.2011     0.0000   240.0000 </r>
       <r>    -1.0969     0.0000   240.0000 </r>
       <r>    -0.9927     0.0000   240.0000 </r>
       <r>    -0.8885     0.0000   240.0000 </r>
       <r>    -0.7843     0.0000   240.0000 </r>
       <r>    -0.6801     0.0000   240.0000 </r>
       <r>    -0.5759     0.0000   240.0000 </r>
       <r>    -0.4717     0.0000   240.0000 </r>
       <r>    -0.3675     0.0000   240.0000 </r>
       <r>    -0.2633     0.0000   240.0000 </r>
       <r>    -0.1591     0.0000   240.0000 </r>
       <r>    -0.0549     0.0000   240.0000 </r>
       <r>     0.0493     0.0000   240.0000 </r>
       <r>     0.1535     0.0000   240.0000 </r>
       <r>     0.2577     0.0000   240.0000 </r>
       <r>     0.3619     0.0082   240.0009 </r>
       <r>     0.4661     1.1361   240.1192 </r>
       <r>     0.5703     4.1597   240.5527 </r>
       <r>     0.6745    20.2392   242.6615 </r>
       <r>     0.7787    28.9501   245.6781 </r>
       <r>     0.8829    30.3647   248.8420 </r>
       <r>     0.9871    30.8685   252.0584 </r>
       <r>     1.0912    24.2370   254.5838 </r>
       <r>     1.1954    14.6611   256.1115 </r>
       <r>     1.2996    21.9893   258.4027 </r>
       <r>     1.4038    32.7860   261.8189 </r>
       <r>     1.5080    15.1578   263.3983 </r>
       <r>     1.6122    10.4218   264.4842 </r>
       <r>     1.7164    16.4850   266.2019 </r>
       <r>     1.8206    35.1969   269.8694 </r>
       <r>     1.9248    10.1579   270.9278 </r>
       <r>     2.0290    19.7678   272.9875 </r>
       <r>     2.1332    19.9120   275.0623 </r>
       <r>     2.2374    26.6371   277.8378 </r>
       <r>     2.3416    39.4538   281.9488 </r>
       <r>     2.4458    27.6047   284.8252 </r>
       <r>     2.5500    27.8652   287.7286 </r>
       <r>     2.6542    16.4032   289.4378 </r>
       <r>     2.7584    24.5118   291.9919 </r>
       <r>     2.8626    29.2483   295.0395 </r>
       <r>     2.9668    37.5389   298.9509 </r>
       <r>     3.0710    34.4212   302.5375 </r>
       <r>     3.1752    13.3320   303.9267 </r>
       <r>     3.2794    25.8044   306.6154 </r>
       <r>     3.3836    19.2448   308.6207 </r>
       <r>     3.4878    19.7619   310.6798 </r>
       <r>     3.5920    15.8320   312.3295 </r>
       <r>     3.6962    27.6176   315.2072 </r>
       <r>     3.8004    44.2894   319.8220 </r>
       <r>     3.9046    34.6580   323.4333 </r>
       <r>     4.0088    15.6470   325.0637 </r>
       <r>     4.1130    29.9055   328.1797 </r>
       <r>     4.2172    36.1296   331.9444 </r>
       <r>     4.3214    19.8762   334.0154 </r>
       <r>     4.4256    19.2090   336.0169 </r>
       <r>     4.5298    35.6174   339.7282 </r>
       <r>     4.6340    19.0368   341.7118 </r>
       <r>     4.7382    15.4456   343.3211 </r>
       <r>     4.8424    15.9877   344.9870 </r>
       <r>     4.9466    17.7253   346.8339 </r>
       <r>     5.0508     6.8367   347.5463 </r>
       <r>     5.1549    35.1396   351.2078 </r>
       <r>     5.2591    46.4508   356.0478 </r>
       <r>     5.3633    48.7673   361.1292 </r>
       <r>     5.4675    52.7110   366.6216 </r>
       <r>     5.5717    28.1674   369.5566 </r>
       <r>     5.6759    25.8736   372.2525 </r>
       <r>     5.7801    24.2556   374.7799 </r>
       <r>     5.8843    20.6675   376.9334 </r>
       <r>     5.9885    27.3149   379.7795 </r>
       <r>     6.0927    24.9255   382.3767 </r>
       <r>     6.1969     8.1204   383.2228 </r>
       <r>     6.3011     5.4746   383.7933 </r>
       <r>     6.4053     1.9514   383.9966 </r>
       <r>     6.5095     0.0328   384.0000 </r>
       <r>     6.6137     0.0001   384.0000 </r>
       <r>     6.7179     0.1317   384.0137 </r>
       <r>     6.8221     0.2657   384.0414 </r>
       <r>     6.9263     0.1310   384.0551 </r>
       <r>     7.0305     0.6510   384.1229 </r>
       <r>     7.1347     0.0836   384.1316 </r>
       <r>     7.2389     0.7225   384.2069 </r>
       <r>     7.3431     0.7940   384.2896 </r>
       <r>     7.4473     0.4300   384.3344 </r>
       <r>     7.5515     1.2626   384.4660 </r>
       <r>     7.6557     3.3037   384.8102 </r>
       <r>     7.7599     3.8823   385.2148 </r>
       <r>     7.8641     4.8833   385.7236 </r>
       <r>     7.9683     4.6157   386.2045 </r>
       <r>     8.0725    10.1444   387.2615 </r>
       <r>     8.1767     6.5913   387.9483 </r>
       <r>     8.2809    11.8178   389.1797 </r>
       <r>     8.3851     7.3256   389.9430 </r>
       <r>     8.4893     7.9325   390.7696 </r>
       <r>     8.5935     9.6565   391.7758 </r>
       <r>     8.6977    10.8703   392.9084 </r>
       <r>     8.8019    33.7719   396.4274 </r>
       <r>     8.9061    22.0351   398.7234 </r>
       <r>     9.0103    24.9849   401.3267 </r>
       <r>     9.1144    15.4281   402.9343 </r>
       <r>     9.2186    32.0601   406.2749 </r>
       <r>     9.3228    18.7558   408.2292 </r>
       <r>     9.4270    20.9088   410.4078 </r>
       <r>     9.5312    20.5356   412.5476 </r>
       <r>     9.6354    27.4051   415.4031 </r>
       <r>     9.7396    30.0216   418.5313 </r>
       <r>     9.8438    22.6817   420.8947 </r>
       <r>     9.9480    22.9819   423.2893 </r>
       <r>    10.0522    26.8912   426.0913 </r>
       <r>    10.1564    32.7878   429.5077 </r>
       <r>    10.2606    25.0219   432.1149 </r>
       <r>    10.3648    25.2249   434.7433 </r>
       <r>    10.4690    20.2203   436.8502 </r>
       <r>    10.5732    20.0902   438.9435 </r>
       <r>    10.6774    13.9110   440.3930 </r>
       <r>    10.7816    21.5406   442.6375 </r>
       <r>    10.8858    17.5945   444.4708 </r>
       <r>    10.9900    21.4486   446.7057 </r>
       <r>    11.0942    35.5589   450.4108 </r>
       <r>    11.1984    38.4593   454.4182 </r>
       <r>    11.3026    31.3790   457.6878 </r>
       <r>    11.4068    35.0698   461.3420 </r>
       <r>    11.5110    17.2595   463.1404 </r>
       <r>    11.6152     5.6296   463.7270 </r>
       <r>    11.7194     2.5686   463.9946 </r>
       <r>    11.8236     0.0515   464.0000 </r>
       <r>    11.9278     0.0000   464.0000 </r>
       <r>    12.0320     0.0000   464.0000 </r>
       <r>    12.1362     0.0000   464.0000 </r>
       <r>    12.2404     0.0000   464.0000 </r>
       <r>    12.3446     0.0000   464.0000 </r>
       <r>    12.4488     0.0000   464.0000 </r>
       <r>    12.5530     0.0000   464.0000 </r>
       <r>    12.6572     0.0000   464.0000 </r>
       <r>    12.7614     0.0000   464.0000 </r>
       <r>    12.8656     0.0000   464.0000 </r>
       <r>    12.9698     0.0000   464.0000 </r>
       <r>    13.0739     0.0000   464.0000 </r>
      </set>
     </set>
    </array>
   </total>
  </dos>
 </calculation>
 <structure name="finalpos" >
  <crystal>
   <varray name="basis" >
    <v>       7.84015905       0.00000000       0.00000000 </v>
    <v>       0.00000000       7.84015905       0.00000000 </v>
    <v>       0.00000000       0.00000000      12.37270181 </v>
   </varray>
   <i name="volume">    760.52639654 </i>
   <varray name="rec_basis" >
    <v>       0.12754843       0.00000000       0.00000000 </v>
    <v>       0.00000000       0.12754843       0.00000000 </v>
    <v>       0.00000000       0.00000000       0.08082309 </v>
   </varray>
  </crystal>
  <varray name="positions" >
   <v>       0.24891105       0.24891105       0.85428191 </v>
   <v>       0.75108895       0.24891105       0.85428191 </v>
   <v>       0.24891105       0.75108895       0.85428191 </v>
   <v>       0.75108895       0.75108895       0.85428191 </v>
   <v>       0.00000000       0.00000000       0.64671768 </v>
   <v>       0.50000000       0.00000000       0.64751589 </v>
   <v>       0.00000000       0.50000000       0.64751589 </v>
   <v>       0.50000000       0.50000000       0.64841728 </v>
   <v>       0.00000000       0.00000000       0.35328232 </v>
   <v>       0.50000000       0.00000000       0.35248411 </v>
   <v>       0.00000000       0.50000000       0.35248411 </v>
   <v>       0.50000000       0.50000000       0.35158272 </v>
   <v>       0.24891105       0.24891105       0.14571809 </v>
   <v>       0.75108895       0.24891105       0.14571809 </v>
   <v>       0.24891105       0.75108895       0.14571809 </v>
   <v>       0.75108895       0.75108895       0.14571809 </v>
   <v>       0.50000000       0.00000000       0.00000000 </v>
   <v>       0.00000000       0.50000000       0.00000000 </v>
   <v>       0.50000000       0.50000000       0.00000000 </v>
   <v>       0.25013757       0.25013757       0.50000000 </v>
   <v>       0.74986243       0.25013757       0.50000000 </v>
   <v>       0.25013757       0.74986243       0.50000000 </v>
   <v>       0.74986243       0.74986243       0.50000000 </v>
   <v>       0.00000000       0.24953521       0.75047355 </v>
   <v>       0.50000000       0.24967022       0.75139378 </v>
   <v>       0.00000000       0.75046479       0.75047355 </v>
   <v>       0.50000000       0.75032978       0.75139378 </v>
   <v>       0.24953521       0.00000000       0.75047355 </v>
   <v>       0.75046479       0.00000000       0.75047355 </v>
   <v>       0.24967022       0.50000000       0.75139378 </v>
   <v>       0.75032978       0.50000000       0.75139378 </v>
   <v>       0.24953521       0.00000000       0.24952645 </v>
   <v>       0.75046479       0.00000000       0.24952645 </v>
   <v>       0.24967022       0.50000000       0.24860622 </v>
   <v>       0.75032978       0.50000000       0.24860622 </v>
   <v>       0.00000000       0.24953521       0.24952645 </v>
   <v>       0.50000000       0.24967022       0.24860622 </v>
   <v>       0.00000000       0.75046479       0.24952645 </v>
   <v>       0.50000000       0.75032978       0.24860622 </v>
   <v>       0.00000000       0.00000000       0.00000000 </v>
  </varray>
 </structure>
</modeling>
