unknown system                          
           1
     7.840159    0.000000    0.000000
     0.000000    7.840159    0.000000
     0.000000    0.000000   12.372702
   Bi   Se   O    S 
    16     7    16     1
Direct configuration=     1
   0.24891105  0.24891105  0.85428191
   0.75108895  0.24891105  0.85428191
   0.24891105  0.75108895  0.85428191
   0.75108895  0.75108895  0.85428191
   0.00000000  0.00000000  0.64671768
   0.50000000  0.00000000  0.64751589
   0.00000000  0.50000000  0.64751589
   0.50000000  0.50000000  0.64841728
   0.00000000  0.00000000  0.35328232
   0.50000000  0.00000000  0.35248411
   0.00000000  0.50000000  0.35248411
   0.50000000  0.50000000  0.35158272
   0.24891105  0.24891105  0.14571809
   0.75108895  0.24891105  0.14571809
   0.24891105  0.75108895  0.14571809
   0.75108895  0.75108895  0.14571809
   0.50000000  0.00000000  0.00000000
   0.00000000  0.50000000  0.00000000
   0.50000000  0.50000000  0.00000000
   0.25013757  0.25013757  0.50000000
   0.74986243  0.25013757  0.50000000
   0.25013757  0.74986243  0.50000000
   0.74986243  0.74986243  0.50000000
   0.00000000  0.24953521  0.75047355
   0.50000000  0.24967022  0.75139378
   0.00000000  0.75046479  0.75047355
   0.50000000  0.75032978  0.75139378
   0.24953521  0.00000000  0.75047355
   0.75046479  0.00000000  0.75047355
   0.24967022  0.50000000  0.75139378
   0.75032978  0.50000000  0.75139378
   0.24953521  0.00000000  0.24952645
   0.75046479  0.00000000  0.24952645
   0.24967022  0.50000000  0.24860622
   0.75032978  0.50000000  0.24860622
   0.00000000  0.24953521  0.24952645
   0.50000000  0.24967022  0.24860622
   0.00000000  0.75046479  0.24952645
   0.50000000  0.75032978  0.24860622
   0.00000000  0.00000000  0.00000000
