  40  40   0   0
  0.1762253E+02  0.7644155E-09  0.7644155E-09  0.1206338E-08  0.5000000E-15
  1.000000000000000E-004
  CAR 
 unknown system                          
     14.56421247    -17.27468891  301      7.36066103      1.00000000
    -17.275  0.0000E+00  0.0000E+00
    -17.169  0.0000E+00  0.0000E+00
    -17.062  0.0000E+00  0.0000E+00
    -16.956  0.0000E+00  0.0000E+00
    -16.850  0.0000E+00  0.0000E+00
    -16.744  0.0000E+00  0.0000E+00
    -16.638  0.0000E+00  0.0000E+00
    -16.532  0.0000E+00  0.0000E+00
    -16.426  0.0000E+00  0.0000E+00
    -16.320  0.0000E+00  0.0000E+00
    -16.213  0.0000E+00  0.0000E+00
    -16.107  0.3857E-16  0.4094E-17
    -16.001  0.3458E-07  0.3670E-08
    -15.895  0.7481E-02  0.7939E-03
    -15.789  0.1037E+01  0.1109E+00
    -15.683  0.1445E+01  0.2642E+00
    -15.577  0.4495E+01  0.7412E+00
    -15.470  0.7656E+01  0.1554E+01
    -15.364  0.4358E+00  0.1600E+01
    -15.258  0.4231E-04  0.1600E+01
    -15.152  0.1220E-11  0.1600E+01
    -15.046  0.0000E+00  0.1600E+01
    -14.940  0.0000E+00  0.1600E+01
    -14.834  0.0000E+00  0.1600E+01
    -14.728  0.0000E+00  0.1600E+01
    -14.621  0.0000E+00  0.1600E+01
    -14.515  0.0000E+00  0.1600E+01
    -14.409  0.0000E+00  0.1600E+01
    -14.303  0.0000E+00  0.1600E+01
    -14.197  0.0000E+00  0.1600E+01
    -14.091  0.0000E+00  0.1600E+01
    -13.985  0.0000E+00  0.1600E+01
    -13.879  0.0000E+00  0.1600E+01
    -13.772  0.0000E+00  0.1600E+01
    -13.666  0.0000E+00  0.1600E+01
    -13.560  0.0000E+00  0.1600E+01
    -13.454  0.0000E+00  0.1600E+01
    -13.348  0.0000E+00  0.1600E+01
    -13.242  0.0000E+00  0.1600E+01
    -13.136  0.0000E+00  0.1600E+01
    -13.030  0.0000E+00  0.1600E+01
    -12.923  0.0000E+00  0.1600E+01
    -12.817  0.0000E+00  0.1600E+01
    -12.711  0.3745E-11  0.1600E+01
    -12.605  0.9665E-05  0.1600E+01
    -12.499  0.7917E-02  0.1601E+01
    -12.393  0.3681E-01  0.1605E+01
    -12.287  0.8775E-01  0.1614E+01
    -12.180  0.7721E-01  0.1622E+01
    -12.074  0.1657E-01  0.1624E+01
    -11.968  0.1113E+00  0.1636E+01
    -11.862  0.1512E+00  0.1652E+01
    -11.756  0.6340E-02  0.1653E+01
    -11.650  0.5017E-01  0.1658E+01
    -11.544  0.1017E+00  0.1669E+01
    -11.438  0.1905E+00  0.1689E+01
    -11.331  0.3722E-01  0.1693E+01
    -11.225  0.1396E+00  0.1708E+01
    -11.119  0.4568E-01  0.1712E+01
    -11.013  0.4436E-01  0.1717E+01
    -10.907  0.3019E+00  0.1749E+01
    -10.801  0.1573E+00  0.1766E+01
    -10.695  0.1254E+00  0.1779E+01
    -10.589  0.1629E+00  0.1797E+01
    -10.482  0.2124E+00  0.1819E+01
    -10.376  0.3565E+00  0.1857E+01
    -10.270  0.1187E-01  0.1858E+01
    -10.164  0.9251E-01  0.1868E+01
    -10.058  0.2381E+00  0.1893E+01
     -9.952  0.5110E-01  0.1899E+01
     -9.846  0.1312E+00  0.1913E+01
     -9.739  0.6602E-01  0.1920E+01
     -9.633  0.3610E-02  0.1920E+01
     -9.527  0.6276E-06  0.1920E+01
     -9.421  0.2223E-13  0.1920E+01
     -9.315  0.0000E+00  0.1920E+01
     -9.209  0.0000E+00  0.1920E+01
     -9.103  0.0000E+00  0.1920E+01
     -8.997  0.0000E+00  0.1920E+01
     -8.890  0.0000E+00  0.1920E+01
     -8.784  0.0000E+00  0.1920E+01
     -8.678  0.0000E+00  0.1920E+01
     -8.572  0.0000E+00  0.1920E+01
     -8.466  0.0000E+00  0.1920E+01
     -8.360  0.0000E+00  0.1920E+01
     -8.254  0.0000E+00  0.1920E+01
     -8.148  0.0000E+00  0.1920E+01
     -8.041  0.0000E+00  0.1920E+01
     -7.935  0.0000E+00  0.1920E+01
     -7.829  0.0000E+00  0.1920E+01
     -7.723  0.0000E+00  0.1920E+01
     -7.617  0.0000E+00  0.1920E+01
     -7.511  0.0000E+00  0.1920E+01
     -7.405  0.0000E+00  0.1920E+01
     -7.298  0.0000E+00  0.1920E+01
     -7.192  0.0000E+00  0.1920E+01
     -7.086  0.0000E+00  0.1920E+01
     -6.980  0.0000E+00  0.1920E+01
     -6.874  0.0000E+00  0.1920E+01
     -6.768  0.0000E+00  0.1920E+01
     -6.662  0.0000E+00  0.1920E+01
     -6.556  0.0000E+00  0.1920E+01
     -6.449  0.0000E+00  0.1920E+01
     -6.343  0.0000E+00  0.1920E+01
     -6.237  0.9003E-10  0.1920E+01
     -6.131  0.2691E-04  0.1920E+01
     -6.025  0.2774E-02  0.1920E+01
     -5.919  0.1311E-01  0.1922E+01
     -5.813  0.2802E-01  0.1925E+01
     -5.707  0.3825E-01  0.1929E+01
     -5.600  0.3040E-01  0.1932E+01
     -5.494  0.4029E-01  0.1936E+01
     -5.388  0.9197E-01  0.1946E+01
     -5.282  0.8412E-01  0.1955E+01
     -5.176  0.4085E-01  0.1959E+01
     -5.070  0.7560E-01  0.1967E+01
     -4.964  0.7511E-01  0.1975E+01
     -4.858  0.9514E-01  0.1985E+01
     -4.751  0.9214E-01  0.1995E+01
     -4.645  0.8443E-01  0.2004E+01
     -4.539  0.1270E+00  0.2018E+01
     -4.433  0.1150E+00  0.2030E+01
     -4.327  0.8599E-01  0.2039E+01
     -4.221  0.1580E+00  0.2056E+01
     -4.115  0.7278E-01  0.2063E+01
     -4.008  0.7480E-01  0.2071E+01
     -3.902  0.5970E-01  0.2078E+01
     -3.796  0.6281E-01  0.2084E+01
     -3.690  0.1445E+00  0.2100E+01
     -3.584  0.1148E+00  0.2112E+01
     -3.478  0.2508E+00  0.2138E+01
     -3.372  0.3620E+00  0.2177E+01
     -3.266  0.3466E+00  0.2214E+01
     -3.159  0.1529E+00  0.2230E+01
     -3.053  0.1178E+00  0.2242E+01
     -2.947  0.1580E+00  0.2259E+01
     -2.841  0.8300E-01  0.2268E+01
     -2.735  0.1647E+00  0.2285E+01
     -2.629  0.1244E+00  0.2299E+01
     -2.523  0.1464E+00  0.2314E+01
     -2.417  0.7012E-01  0.2322E+01
     -2.310  0.1518E-01  0.2323E+01
     -2.204  0.7230E-01  0.2331E+01
     -2.098  0.9363E-01  0.2341E+01
     -1.992  0.5139E-01  0.2346E+01
     -1.886  0.1135E-01  0.2347E+01
     -1.780  0.7150E-02  0.2348E+01
     -1.674  0.1149E+00  0.2360E+01
     -1.567  0.1058E+00  0.2372E+01
     -1.461  0.5325E-01  0.2377E+01
     -1.355  0.6363E-02  0.2378E+01
     -1.249  0.2595E-01  0.2381E+01
     -1.143  0.3530E-01  0.2385E+01
     -1.037  0.4125E-01  0.2389E+01
     -0.931  0.3617E-01  0.2393E+01
     -0.825  0.1363E-01  0.2394E+01
     -0.718  0.2985E-01  0.2397E+01
     -0.612  0.1299E-01  0.2399E+01
     -0.506  0.1444E-02  0.2399E+01
     -0.400  0.6532E-02  0.2400E+01
     -0.294  0.3314E-02  0.2400E+01
     -0.188  0.7323E-03  0.2400E+01
     -0.082  0.1948E-06  0.2400E+01
      0.024  0.1063E-13  0.2400E+01
      0.131  0.0000E+00  0.2400E+01
      0.237  0.0000E+00  0.2400E+01
      0.343  0.0000E+00  0.2400E+01
      0.449  0.0000E+00  0.2400E+01
      0.555  0.0000E+00  0.2400E+01
      0.661  0.0000E+00  0.2400E+01
      0.767  0.1744E-17  0.2400E+01
      0.873  0.1312E-08  0.2400E+01
      0.980  0.1656E-03  0.2400E+01
      1.086  0.1206E-01  0.2401E+01
      1.192  0.4326E-01  0.2406E+01
      1.298  0.2551E+00  0.2433E+01
      1.404  0.2990E+00  0.2465E+01
      1.510  0.1820E+00  0.2484E+01
      1.616  0.1770E+00  0.2503E+01
      1.723  0.2909E+00  0.2534E+01
      1.829  0.2473E+00  0.2560E+01
      1.935  0.2238E+00  0.2584E+01
      2.041  0.2282E+00  0.2608E+01
      2.147  0.1935E+00  0.2628E+01
      2.253  0.1486E+00  0.2644E+01
      2.359  0.1515E+00  0.2660E+01
      2.465  0.1449E+00  0.2676E+01
      2.572  0.2430E+00  0.2701E+01
      2.678  0.3372E+00  0.2737E+01
      2.784  0.1391E+00  0.2752E+01
      2.890  0.2846E+00  0.2782E+01
      2.996  0.2384E+00  0.2807E+01
      3.102  0.2578E+00  0.2835E+01
      3.208  0.2681E+00  0.2863E+01
      3.314  0.2359E+00  0.2888E+01
      3.421  0.1787E+00  0.2907E+01
      3.527  0.1322E+00  0.2921E+01
      3.633  0.2547E+00  0.2948E+01
      3.739  0.3199E+00  0.2982E+01
      3.845  0.3182E+00  0.3016E+01
      3.951  0.2116E+00  0.3039E+01
      4.057  0.2394E+00  0.3064E+01
      4.164  0.1331E+00  0.3078E+01
      4.270  0.2056E+00  0.3100E+01
      4.376  0.2486E+00  0.3126E+01
      4.482  0.1630E+00  0.3144E+01
      4.588  0.1549E+00  0.3160E+01
      4.694  0.2971E+00  0.3192E+01
      4.800  0.4261E+00  0.3237E+01
      4.906  0.1931E+00  0.3257E+01
      5.013  0.3024E+00  0.3289E+01
      5.119  0.3560E+00  0.3327E+01
      5.225  0.3015E+00  0.3359E+01
      5.331  0.2444E+00  0.3385E+01
      5.437  0.3496E+00  0.3422E+01
      5.543  0.2627E+00  0.3450E+01
      5.649  0.1680E+00  0.3468E+01
      5.755  0.4819E-01  0.3473E+01
      5.862  0.3278E+00  0.3508E+01
      5.968  0.3973E+00  0.3550E+01
      6.074  0.2890E+00  0.3581E+01
      6.180  0.4296E+00  0.3626E+01
      6.286  0.3060E+00  0.3659E+01
      6.392  0.3359E+00  0.3694E+01
      6.498  0.2688E+00  0.3723E+01
      6.604  0.1841E+00  0.3742E+01
      6.711  0.1242E+00  0.3756E+01
      6.817  0.1595E+00  0.3773E+01
      6.923  0.2534E+00  0.3799E+01
      7.029  0.2874E+00  0.3830E+01
      7.135  0.9394E-01  0.3840E+01
      7.241  0.1149E-02  0.3840E+01
      7.347  0.2646E-07  0.3840E+01
      7.454  0.1251E-15  0.3840E+01
      7.560  0.8675E-12  0.3840E+01
      7.666  0.2374E-05  0.3840E+01
      7.772  0.1596E-02  0.3840E+01
      7.878  0.2316E-02  0.3840E+01
      7.984  0.8192E-04  0.3840E+01
      8.090  0.9930E-02  0.3841E+01
      8.196  0.5696E-02  0.3842E+01
      8.303  0.7266E-05  0.3842E+01
      8.409  0.7008E-04  0.3842E+01
      8.515  0.6667E-02  0.3843E+01
      8.621  0.2690E-01  0.3846E+01
      8.727  0.4203E-01  0.3850E+01
      8.833  0.6031E-01  0.3857E+01
      8.939  0.1882E-02  0.3857E+01
      9.045  0.6594E-01  0.3864E+01
      9.152  0.9801E-01  0.3874E+01
      9.258  0.6937E-01  0.3881E+01
      9.364  0.1006E+00  0.3892E+01
      9.470  0.4527E-01  0.3897E+01
      9.576  0.1139E+00  0.3909E+01
      9.682  0.8348E-01  0.3918E+01
      9.788  0.1282E+00  0.3932E+01
      9.895  0.3264E+00  0.3966E+01
     10.001  0.2020E+00  0.3988E+01
     10.107  0.2128E+00  0.4010E+01
     10.213  0.1344E+00  0.4024E+01
     10.319  0.2351E+00  0.4049E+01
     10.425  0.2432E+00  0.4075E+01
     10.531  0.2184E+00  0.4098E+01
     10.637  0.1857E+00  0.4118E+01
     10.744  0.3275E+00  0.4153E+01
     10.850  0.3175E+00  0.4187E+01
     10.956  0.1769E+00  0.4205E+01
     11.062  0.2136E+00  0.4228E+01
     11.168  0.2363E+00  0.4253E+01
     11.274  0.1786E+00  0.4272E+01
     11.380  0.3257E+00  0.4307E+01
     11.486  0.2049E+00  0.4328E+01
     11.593  0.1679E+00  0.4346E+01
     11.699  0.1599E+00  0.4363E+01
     11.805  0.1524E+00  0.4379E+01
     11.911  0.1593E+00  0.4396E+01
     12.017  0.1866E+00  0.4416E+01
     12.123  0.1152E+00  0.4428E+01
     12.229  0.3244E+00  0.4463E+01
     12.335  0.3475E+00  0.4500E+01
     12.442  0.2801E+00  0.4529E+01
     12.548  0.1859E+00  0.4549E+01
     12.654  0.3512E+00  0.4586E+01
     12.760  0.2722E+00  0.4615E+01
     12.866  0.1300E+00  0.4629E+01
     12.972  0.7219E-01  0.4637E+01
     13.078  0.1920E-01  0.4639E+01
     13.185  0.1246E-01  0.4640E+01
     13.291  0.3019E-03  0.4640E+01
     13.397  0.3961E-08  0.4640E+01
     13.503  0.9589E-17  0.4640E+01
     13.609  0.0000E+00  0.4640E+01
     13.715  0.0000E+00  0.4640E+01
     13.821  0.0000E+00  0.4640E+01
     13.927  0.0000E+00  0.4640E+01
     14.034  0.0000E+00  0.4640E+01
     14.140  0.0000E+00  0.4640E+01
     14.246  0.0000E+00  0.4640E+01
     14.352  0.0000E+00  0.4640E+01
     14.458  0.0000E+00  0.4640E+01
     14.564  0.0000E+00  0.4640E+01
