 vasp.6.4.3 19Mar24 (build Apr 09 2025 20:43:19) complex                        
  
 executed on             LinuxIFC date 2025.04.13  03:43:41
 running   36 mpi-ranks, on    1 nodes
 distrk:  each k-point on   36 cores,    1 groups
 distr:  one band on NCORE=   9 cores,    4 groups


--------------------------------------------------------------------------------------------------------


 INCAR:
   PREC = Accurate
   IBRION = 2
   NSW = 100
   NELMIN = 5
   ISIF = 2
   ENCUT = 520
   EDIFF = 1.000000e-08
   EDIFFG = -1.000000e-5
   ISMEAR = 0
   SIGMA = 0.05
   IALGO = 38
   LREAL = .FALSE.
   ADDGRID = .TRUE.
   LWAVE = .FALSE.
   LCHARG = .FALSE.
   NCORE = 9

 POTCAR:    PAW_PBE Bi_d 06Sep2000                
 POTCAR:    PAW_PBE Se 06Sep2000                  
 POTCAR:    PAW_PBE O 08Apr2002                   
 POTCAR:    PAW_PBE S 06Sep2000                   
 POTCAR:    PAW_PBE Bi_d 06Sep2000                
   SHA256 =  572e7eac3f9482ff025db24f2820381a7a3856069fa85913dc654793f618f69a Bi_d/POTCAR           
   COPYR  = (c) Copyright 06Sep2000 Georg Kresse                                                    
   COPYR  = This file is part of the software VASP. Any use, copying, and all other rights are regul
   COPYR  = If you do not have a valid VASP license, you may not use, copy or distribute this file. 
   VRHFIN =Bi:                                                                                      
   LEXCH  = PE                                                                                      
   EATOM  =  1959.2045 eV,  143.9975 Ry                                                             
                                                                                                    
   TITEL  = PAW_PBE Bi_d 06Sep2000                                                                  
   LULTRA =        F    use ultrasoft PP ?                                                          
   IUNSCR =        1    unscreen: 0-lin 1-nonlin 2-no                                               
   RPACOR =    2.200    partial core radius                                                         
   POMASS =  208.980; ZVAL   =   15.000    mass and valenz                                          
   RCORE  =    2.500    outmost cutoff radius                                                       
   RWIGS  =    3.090; RWIGS  =    1.635    wigner-seitz radius (au A)                               
   ENMAX  =  242.839; ENMIN  =  182.129 eV                                                          
   ICORE  =        3    local potential                                                             
   LCOR   =        T    correct aug charges                                                         
   LPAW   =        T    paw PP                                                                      
   EAUG   =  442.899                                                                                
   DEXC   =    0.000                                                                                
   RMAX   =    2.551    core radius for proj-oper                                                   
   RAUG   =    1.300    factor for augmentation sphere                                              
   RDEP   =    2.650    radius for radial grids                                                     
   RDEPT  =    2.039    core radius for aug-charge                                                  
                                                                                                    
   Atomic configuration                                                                             
   16 entries                                                                                       
     n  l   j            E        occ.                                                              
     1  0  0.50    -90639.6581   2.0000                                                             
     2  0  0.50    -16282.4666   2.0000                                                             
     2  1  1.50    -13922.8286   6.0000                                                             
     3  0  0.50     -3930.4763   2.0000                                                             
     3  1  1.50     -3256.7013   6.0000                                                             
     3  2  2.50     -2581.6168  10.0000                                                             
     4  0  0.50      -902.2614   2.0000                                                             
     4  1  1.50      -681.5915   6.0000                                                             
     4  2  2.50      -429.8249  10.0000                                                             
     4  3  3.50      -152.6004  14.0000                                                             
     5  0  0.50      -157.7156   2.0000                                                             
     5  1  1.50       -95.8054   6.0000                                                             
     5  2  2.50       -27.0806  10.0000                                                             
     6  0  0.50       -14.4732   2.0000                                                             
     6  1  1.50        -4.5702   3.0000                                                             
     5  3  2.50        -2.7212   0.0000                                                             
   Description                                                                                      
     l       E           TYP  RCUT    TYP  RCUT                                                     
     2    -27.0805982     23  2.500                                                                 
     2     -1.3605826     23  2.500                                                                 
     0    -14.4732271     23  2.500                                                                 
     0      6.8029130     23  2.500                                                                 
     1     -4.5701651     23  2.500                                                                 
     1     13.6058260     23  2.500                                                                 
     3     -1.3605826      7  2.500                                                                 
  local pseudopotential read in
  partial core-charges read in
  partial kinetic energy density read in
  atomic valenz-charges read in
  non local Contribution for L=           2  read in
    real space projection operators read in
  non local Contribution for L=           2  read in
    real space projection operators read in
  non local Contribution for L=           0  read in
    real space projection operators read in
  non local Contribution for L=           0  read in
    real space projection operators read in
  non local Contribution for L=           1  read in
    real space projection operators read in
  non local Contribution for L=           1  read in
    real space projection operators read in
    PAW grid and wavefunctions read in
 
   number of l-projection  operators is LMAX  =           6
   number of lm-projection operators is LMMAX =          18
 
 POTCAR:    PAW_PBE Se 06Sep2000                  
   SHA256 =  eabb916e6b4c819dc065ce039373bc328651da483898f08fb9e49c498452bf12 Se/POTCAR             
   COPYR  = (c) Copyright 06Sep2000 Georg Kresse                                                    
   COPYR  = This file is part of the software VASP. Any use, copying, and all other rights are regul
   COPYR  = If you do not have a valid VASP license, you may not use, copy or distribute this file. 
   VRHFIN =Se: s2p4                                                                                 
   LEXCH  = PE                                                                                      
   EATOM  =   257.1286 eV,   18.8984 Ry                                                             
                                                                                                    
   TITEL  = PAW_PBE Se 06Sep2000                                                                    
   LULTRA =        F    use ultrasoft PP ?                                                          
   IUNSCR =        1    unscreen: 0-lin 1-nonlin 2-no                                               
   RPACOR =    1.900    partial core radius                                                         
   POMASS =   78.960; ZVAL   =    6.000    mass and valenz                                          
   RCORE  =    2.100    outmost cutoff radius                                                       
   RWIGS  =    2.200; RWIGS  =    1.164    wigner-seitz radius (au A)                               
   ENMAX  =  211.555; ENMIN  =  158.666 eV                                                          
   ICORE  =        3    local potential                                                             
   LCOR   =        T    correct aug charges                                                         
   LPAW   =        T    paw PP                                                                      
   EAUG   =  446.842                                                                                
   DEXC   =    0.000                                                                                
   RMAX   =    2.147    core radius for proj-oper                                                   
   RAUG   =    1.300    factor for augmentation sphere                                              
   RDEP   =    2.177    radius for radial grids                                                     
   RDEPT  =    1.928    core radius for aug-charge                                                  
                                                                                                    
   Atomic configuration                                                                             
   10 entries                                                                                       
     n  l   j            E        occ.                                                              
     1  0  0.50    -12503.4787   2.0000                                                             
     2  0  0.50     -1606.9547   2.0000                                                             
     2  1  1.50     -1413.3140   6.0000                                                             
     3  0  0.50      -213.4885   2.0000                                                             
     3  1  1.50      -152.9538   6.0000                                                             
     3  2  2.50       -53.1221  10.0000                                                             
     4  0  0.50       -17.2865   2.0000                                                             
     4  1  0.50        -6.5110   4.0000                                                             
     4  2  2.50        -6.8029   0.0000                                                             
     4  3  2.50        -6.8029   0.0000                                                             
   Description                                                                                      
     l       E           TYP  RCUT    TYP  RCUT                                                     
     0    -17.2865377     23  2.100                                                                 
     0    -15.3094411     23  2.100                                                                 
     1     -6.5110275     23  2.100                                                                 
     1     -0.0695192     23  2.100                                                                 
     2     -6.8029130     23  2.100                                                                 
     3     -1.3605826      7  2.100                                                                 
  local pseudopotential read in
  partial core-charges read in
  partial kinetic energy density read in
  atomic valenz-charges read in
  non local Contribution for L=           0  read in
    real space projection operators read in
  non local Contribution for L=           0  read in
    real space projection operators read in
  non local Contribution for L=           1  read in
    real space projection operators read in
  non local Contribution for L=           1  read in
    real space projection operators read in
  non local Contribution for L=           2  read in
    real space projection operators read in
    PAW grid and wavefunctions read in
 
   number of l-projection  operators is LMAX  =           5
   number of lm-projection operators is LMMAX =          13
 
 POTCAR:    PAW_PBE O 08Apr2002                   
   SHA256 =  818f92134a0a090dccd8ba1447fa70422a3b330e708bb4f08108d8ae51209ddf O/POTCAR              
   COPYR  = (c) Copyright 08Apr2002 Georg Kresse                                                    
   COPYR  = This file is part of the software VASP. Any use, copying, and all other rights are regul
   COPYR  = If you do not have a valid VASP license, you may not use, copy or distribute this file. 
   VRHFIN =O: s2p4                                                                                  
   LEXCH  = PE                                                                                      
   EATOM  =   432.3788 eV,   31.7789 Ry                                                             
                                                                                                    
   TITEL  = PAW_PBE O 08Apr2002                                                                     
   LULTRA =        F    use ultrasoft PP ?                                                          
   IUNSCR =        1    unscreen: 0-lin 1-nonlin 2-no                                               
   RPACOR =    1.200    partial core radius                                                         
   POMASS =   16.000; ZVAL   =    6.000    mass and valenz                                          
   RCORE  =    1.520    outmost cutoff radius                                                       
   RWIGS  =    1.550; RWIGS  =    0.820    wigner-seitz radius (au A)                               
   ENMAX  =  400.000; ENMIN  =  300.000 eV                                                          
   ICORE  =        2    local potential                                                             
   LCOR   =        T    correct aug charges                                                         
   LPAW   =        T    paw PP                                                                      
   EAUG   =  605.392                                                                                
   DEXC   =    0.000                                                                                
   RMAX   =    1.553    core radius for proj-oper                                                   
   RAUG   =    1.300    factor for augmentation sphere                                              
   RDEP   =    1.550    radius for radial grids                                                     
   RDEPT  =    1.329    core radius for aug-charge                                                  
                                                                                                    
   Atomic configuration                                                                             
    4 entries                                                                                       
     n  l   j            E        occ.                                                              
     1  0  0.50      -514.6923   2.0000                                                             
     2  0  0.50       -23.9615   2.0000                                                             
     2  1  0.50        -9.0305   4.0000                                                             
     3  2  1.50        -9.5241   0.0000                                                             
   Description                                                                                      
     l       E           TYP  RCUT    TYP  RCUT                                                     
     0    -23.9615318     23  1.200                                                                 
     0     -9.5240782     23  1.200                                                                 
     1     -9.0304911     23  1.520                                                                 
     1      8.1634956     23  1.520                                                                 
     2     -9.5240782      7  1.500                                                                 
  local pseudopotential read in
  partial core-charges read in
  partial kinetic energy density read in
  kinetic energy density of atom read in
  atomic valenz-charges read in
  non local Contribution for L=           0  read in
    real space projection operators read in
  non local Contribution for L=           0  read in
    real space projection operators read in
  non local Contribution for L=           1  read in
    real space projection operators read in
  non local Contribution for L=           1  read in
    real space projection operators read in
    PAW grid and wavefunctions read in
 
   number of l-projection  operators is LMAX  =           4
   number of lm-projection operators is LMMAX =           8
 
 POTCAR:    PAW_PBE S 06Sep2000                   
   SHA256 =  0fc7481fb0695f01bdc6462160264c5c84044ae9ec85a907d398b887a2bc3132 S/POTCAR              
   COPYR  = (c) Copyright 06Sep2000 Georg Kresse                                                    
   COPYR  = This file is part of the software VASP. Any use, copying, and all other rights are regul
   COPYR  = If you do not have a valid VASP license, you may not use, copy or distribute this file. 
   VRHFIN =S : s2p4                                                                                 
   LEXCH  = PE                                                                                      
   EATOM  =   276.8230 eV,   20.3459 Ry                                                             
                                                                                                    
   TITEL  = PAW_PBE S 06Sep2000                                                                     
   LULTRA =        F    use ultrasoft PP ?                                                          
   IUNSCR =        1    unscreen: 0-lin 1-nonlin 2-no                                               
   RPACOR =    1.500    partial core radius                                                         
   POMASS =   32.066; ZVAL   =    6.000    mass and valenz                                          
   RCORE  =    1.900    outmost cutoff radius                                                       
   RWIGS  =    2.200; RWIGS  =    1.164    wigner-seitz radius (au A)                               
   ENMAX  =  258.689; ENMIN  =  194.016 eV                                                          
   ICORE  =        2    local potential                                                             
   LCOR   =        T    correct aug charges                                                         
   LPAW   =        T    paw PP                                                                      
   EAUG   =  335.092                                                                                
   DEXC   =    0.000                                                                                
   RMAX   =    1.942    core radius for proj-oper                                                   
   RAUG   =    1.300    factor for augmentation sphere                                              
   RDEP   =    1.954    radius for radial grids                                                     
   RDEPT  =    1.744    core radius for aug-charge                                                  
                                                                                                    
   Atomic configuration                                                                             
    6 entries                                                                                       
     n  l   j            E        occ.                                                              
     1  0  0.50     -2405.8406   2.0000                                                             
     2  0  0.50      -211.7007   2.0000                                                             
     2  1  1.50      -156.4958   6.0000                                                             
     3  0  0.50       -17.2562   2.0000                                                             
     3  1  0.50        -7.0085   4.0000                                                             
     3  2  1.50        -6.8029   0.0000                                                             
   Description                                                                                      
     l       E           TYP  RCUT    TYP  RCUT                                                     
     0    -17.2561641     23  1.900                                                                 
     0    -15.8743224     23  1.900                                                                 
     1     -7.0085400     23  1.900                                                                 
     1     -2.7779785     23  1.900                                                                 
     2     -6.8029130     23  1.900                                                                 
  local pseudopotential read in
  partial core-charges read in
  partial kinetic energy density read in
  atomic valenz-charges read in
  non local Contribution for L=           0  read in
    real space projection operators read in
  non local Contribution for L=           0  read in
    real space projection operators read in
  non local Contribution for L=           1  read in
    real space projection operators read in
  non local Contribution for L=           1  read in
    real space projection operators read in
    PAW grid and wavefunctions read in
 
   number of l-projection  operators is LMAX  =           4
   number of lm-projection operators is LMMAX =           8
 
 -----------------------------------------------------------------------------
|                                                                             |
|               ----> ADVICE to this user running VASP <----                  |
|                                                                             |
|     You have a (more or less) 'large supercell' and for larger cells it     |
|     might be more efficient to use real-space projection operators.         |
|     Therefore, try LREAL= Auto in the INCAR file.                           |
|     Mind: For very accurate calculation, you might also keep the            |
|     reciprocal projection scheme (i.e. LREAL=.FALSE.).                      |
|                                                                             |
 -----------------------------------------------------------------------------

  PAW_PBE Bi_d 06Sep2000                :
 energy of atom  1       EATOM=-1959.2045
 kinetic energy error for atom=    0.0040 (will be added to EATOM!!)
  PAW_PBE Se 06Sep2000                  :
 energy of atom  2       EATOM= -257.1286
 kinetic energy error for atom=    0.0007 (will be added to EATOM!!)
  PAW_PBE O 08Apr2002                   :
 energy of atom  3       EATOM= -432.3788
 kinetic energy error for atom=    0.0208 (will be added to EATOM!!)
  PAW_PBE S 06Sep2000                   :
 energy of atom  4       EATOM= -276.8230
 kinetic energy error for atom=    0.0016 (will be added to EATOM!!)
 
 
 POSCAR: generated by phonopy
  positions in direct lattice
  velocities in cartesian coordinates


 exchange-correlation table for PE
   RHO(1)=    0.500       N(1)  =     2000
   RHO(2)=  100.500       N(2)  =     4000
 


--------------------------------------------------------------------------------------------------------


 ion  position               nearest neighbor table
   1  0.249  0.249  0.858-  28 2.30  24 2.30  25 2.31  30 2.31  40 3.19  18 3.20  17 3.20  19 3.21
                            13 3.43   5 3.73   7 3.74   6 3.74   8 3.74   3 3.80   2 3.80   3 3.84
   2  0.751  0.249  0.858-  29 2.30  24 2.30  25 2.31  31 2.31  40 3.19  18 3.20  17 3.20  19 3.21
                            14 3.43   5 3.73   7 3.74   6 3.74   8 3.74   4 3.80   1 3.80   4 3.84
   3  0.249  0.751  0.858-  28 2.30  26 2.30  27 2.31  30 2.31  40 3.19  18 3.20  17 3.20  19 3.21
                            15 3.43   5 3.73   7 3.74   6 3.74   8 3.74   4 3.80   1 3.80   4 3.84
   4  0.751  0.751  0.858-  29 2.30  26 2.30  27 2.31  31 2.31  40 3.19  18 3.20  17 3.20  19 3.21
                            16 3.43   5 3.73   7 3.74   6 3.74   8 3.74   3 3.80   2 3.80   2 3.84
   5  0.000  0.000  0.643-  24 2.30  26 2.30  28 2.30  29 2.30  20 3.21  21 3.21  22 3.21  23 3.21
                             9 3.45   2 3.73   3 3.73   4 3.73   1 3.73   7 3.82   6 3.82   7 3.82
   6  0.500  0.000  0.644-  28 2.30  29 2.30  25 2.31  27 2.31  20 3.21  21 3.21  22 3.21  23 3.21
                            10 3.47   2 3.74   3 3.74   4 3.74   1 3.74   5 3.82   5 3.82   8 3.82
   7  0.000  0.500  0.644-  24 2.30  26 2.30  30 2.31  31 2.31  20 3.21  21 3.21  22 3.21  23 3.21
                            11 3.47   2 3.74   3 3.74   4 3.74   1 3.74   5 3.82   5 3.82   8 3.82
   8  0.500  0.500  0.645-  25 2.31  27 2.31  30 2.31  31 2.31  20 3.22  21 3.22  22 3.22  23 3.22
                            12 3.50   2 3.74   3 3.74   4 3.74   1 3.74   7 3.82   6 3.82   6 3.82
   9  0.000  0.000  0.357-  32 2.30  33 2.30  36 2.30  38 2.30  20 3.21  21 3.21  22 3.21  23 3.21
                             5 3.45  13 3.73  14 3.73  15 3.73  16 3.73  10 3.82  11 3.82  11 3.82
  10  0.500  0.000  0.356-  32 2.30  33 2.30  37 2.31  39 2.31  20 3.21  21 3.21  22 3.21  23 3.21
                             6 3.47  13 3.74  14 3.74  15 3.74  16 3.74   9 3.82   9 3.82  12 3.82
  11  0.000  0.500  0.356-  36 2.30  38 2.30  34 2.31  35 2.31  20 3.21  21 3.21  22 3.21  23 3.21
                             7 3.47  13 3.74  14 3.74  15 3.74  16 3.74   9 3.82   9 3.82  12 3.82
  12  0.500  0.500  0.355-  34 2.31  35 2.31  37 2.31  39 2.31  20 3.22  21 3.22  22 3.22  23 3.22
                             8 3.50  13 3.74  14 3.74  15 3.74  16 3.74  10 3.82  11 3.82  10 3.82
  13  0.249  0.249  0.142-  32 2.30  36 2.30  34 2.31  37 2.31  40 3.19  18 3.20  17 3.20  19 3.21
                             1 3.43   9 3.73  10 3.74  11 3.74  12 3.74  14 3.80  15 3.80  15 3.84
  14  0.751  0.249  0.142-  33 2.30  36 2.30  35 2.31  37 2.31  40 3.19  18 3.20  17 3.20  19 3.21
                             2 3.43   9 3.73  10 3.74  11 3.74  12 3.74  13 3.80  16 3.80  16 3.84
  15  0.249  0.751  0.142-  32 2.30  38 2.30  34 2.31  39 2.31  40 3.19  18 3.20  17 3.20  19 3.21
                             3 3.43   9 3.73  10 3.74  11 3.74  12 3.74  13 3.80  16 3.80  16 3.84
  16  0.751  0.751  0.142-  33 2.30  38 2.30  35 2.31  39 2.31  40 3.19  18 3.20  17 3.20  19 3.21
                             4 3.43   9 3.73  10 3.74  11 3.74  12 3.74  14 3.80  15 3.80  14 3.84
  17  0.500  0.000  0.000-   1 3.20   2 3.20   3 3.20   4 3.20  13 3.20  14 3.20  15 3.20  16 3.20

  18  0.000  0.500  0.000-   1 3.20   2 3.20   3 3.20   4 3.20  13 3.20  14 3.20  15 3.20  16 3.20

  19  0.500  0.500  0.000-   1 3.21   2 3.21   3 3.21   4 3.21  13 3.21  14 3.21  15 3.21  16 3.21

  20  0.250  0.250  0.500-   9 3.21   5 3.21   7 3.21   6 3.21  10 3.21  11 3.21  12 3.22   8 3.22

  21  0.750  0.250  0.500-   9 3.21   5 3.21   7 3.21   6 3.21  10 3.21  11 3.21  12 3.22   8 3.22

  22  0.250  0.750  0.500-   9 3.21   5 3.21   7 3.21   6 3.21  10 3.21  11 3.21  12 3.22   8 3.22

  23  0.750  0.750  0.500-   9 3.21   5 3.21   7 3.21   6 3.21  10 3.21  11 3.21  12 3.22   8 3.22

  24  0.000  0.249  0.750-   1 2.30   2 2.30   5 2.30   7 2.30
  25  0.500  0.250  0.752-   8 2.31   6 2.31   1 2.31   2 2.31
  26  0.000  0.751  0.750-   3 2.30   4 2.30   5 2.30   7 2.30
  27  0.500  0.750  0.752-   8 2.31   6 2.31   3 2.31   4 2.31
  28  0.249  0.000  0.750-   1 2.30   3 2.30   5 2.30   6 2.30
  29  0.751  0.000  0.750-   2 2.30   4 2.30   5 2.30   6 2.30
  30  0.250  0.500  0.752-   8 2.31   7 2.31   1 2.31   3 2.31
  31  0.750  0.500  0.752-   8 2.31   7 2.31   2 2.31   4 2.31
  32  0.249  0.000  0.250-  13 2.30  15 2.30   9 2.30  10 2.30
  33  0.751  0.000  0.250-  14 2.30  16 2.30   9 2.30  10 2.30
  34  0.250  0.500  0.248-  12 2.31  11 2.31  13 2.31  15 2.31
  35  0.750  0.500  0.248-  12 2.31  11 2.31  14 2.31  16 2.31
  36  0.000  0.249  0.250-  13 2.30  14 2.30   9 2.30  11 2.30
  37  0.500  0.250  0.248-  12 2.31  10 2.31  13 2.31  14 2.31
  38  0.000  0.751  0.250-  15 2.30  16 2.30   9 2.30  11 2.30
  39  0.500  0.750  0.248-  12 2.31  10 2.31  15 2.31  16 2.31
  40  0.000  0.000  0.000-   1 3.19   2 3.19   3 3.19   4 3.19  13 3.19  14 3.19  15 3.19  16 3.19

 
  LATTYP: Found a simple tetragonal cell.
 ALAT       =     7.6441550725
 C/A-ratio  =     1.5781187256
  
  Lattice vectors:
  
 A1 = (   7.6441550725,   0.0000000000,   0.0000000000)
 A2 = (   0.0000000000,   7.6441550725,   0.0000000000)
 A3 = (   0.0000000000,   0.0000000000,  12.0633842612)


Analysis of symmetry for initial positions (statically):
=====================================================================
 Subroutine PRICEL returns:
 Original cell was already a primitive cell.
 

 Routine SETGRP: Setting up the symmetry group for a 
 simple tetragonal supercell.


 Subroutine GETGRP returns: Found 16 space group operations
 (whereof 16 operations were pure point group operations)
 out of a pool of 16 trial point group operations.


The static configuration has the point symmetry D_4h.


Analysis of symmetry for dynamics (positions and initial velocities):
=====================================================================
 Subroutine PRICEL returns:
 Original cell was already a primitive cell.
 

 Routine SETGRP: Setting up the symmetry group for a 
 simple tetragonal supercell.


 Subroutine GETGRP returns: Found 16 space group operations
 (whereof 16 operations were pure point group operations)
 out of a pool of 16 trial point group operations.


The dynamic configuration has the point symmetry D_4h.


 Subroutine INISYM returns: Found 16 space group operations
 (whereof 16 operations are pure point group operations),
 and found     1 'primitive' translations


----------------------------------------------------------------------------------------

                                     Primitive cell                                     

  volume of cell :     704.9010

  direct lattice vectors                    reciprocal lattice vectors
     7.644155072  0.000000000  0.000000000     0.130818905  0.000000000  0.000000000
     0.000000000  7.644155072  0.000000000     0.000000000  0.130818905  0.000000000
     0.000000000  0.000000000 12.063384261     0.000000000  0.000000000  0.082895478

  length of vectors
     7.644155072  7.644155072 12.063384261     0.130818905  0.130818905  0.082895478

  position of ions in fractional coordinates (direct lattice)
     0.248727613  0.248727613  0.857750743
     0.751272387  0.248727613  0.857750743
     0.248727613  0.751272387  0.857750743
     0.751272387  0.751272387  0.857750743
     0.000000000  0.000000000  0.643110259
     0.500000000  0.000000000  0.644000477
     0.000000000  0.500000000  0.644000477
     0.500000000  0.500000000  0.644972476
     0.000000000  0.000000000  0.356889741
     0.500000000  0.000000000  0.355999523
     0.000000000  0.500000000  0.355999523
     0.500000000  0.500000000  0.355027524
     0.248727613  0.248727613  0.142249257
     0.751272387  0.248727613  0.142249257
     0.248727613  0.751272387  0.142249257
     0.751272387  0.751272387  0.142249257
     0.500000000  0.000000000  0.000000000
     0.000000000  0.500000000  0.000000000
     0.500000000  0.500000000  0.000000000
     0.250435563  0.250435563  0.500000000
     0.749564437  0.250435563  0.500000000
     0.250435563  0.749564437  0.500000000
     0.749564437  0.749564437  0.500000000
     0.000000000  0.249409685  0.750274132
     0.500000000  0.249542499  0.751546826
     0.000000000  0.750590315  0.750274132
     0.500000000  0.750457501  0.751546826
     0.249409685  0.000000000  0.750274132
     0.750590315  0.000000000  0.750274132
     0.249542499  0.500000000  0.751546826
     0.750457501  0.500000000  0.751546826
     0.249409685  0.000000000  0.249725868
     0.750590315  0.000000000  0.249725868
     0.249542499  0.500000000  0.248453174
     0.750457501  0.500000000  0.248453174
     0.000000000  0.249409685  0.249725868
     0.500000000  0.249542499  0.248453174
     0.000000000  0.750590315  0.249725868
     0.500000000  0.750457501  0.248453174
     0.000000000  0.000000000  0.000000000

  ion indices of the primitive-cell ions
   primitive index   ion index
                 1           1
                 2           2
                 3           3
                 4           4
                 5           5
                 6           6
                 7           7
                 8           8
                 9           9
                10          10
                11          11
                12          12
                13          13
                14          14
                15          15
                16          16
                17          17
                18          18
                19          19
                20          20
                21          21
                22          22
                23          23
                24          24
                25          25
                26          26
                27          27
                28          28
                29          29
                30          30
                31          31
                32          32
                33          33
                34          34
                35          35
                36          36
                37          37
                38          38
                39          39
                40          40

----------------------------------------------------------------------------------------

 
 
 KPOINTS: K-Spacing Value to Generate K-Mesh: 0.03

Automatic generation of k-mesh.
 Grid dimensions read from file:
 generate k-points for:    4    4    3

 Generating k-lattice:

  Cartesian coordinates                     Fractional coordinates (reciprocal lattice)
     0.032704726  0.000000000  0.000000000     0.250000000  0.000000000  0.000000000
     0.000000000  0.032704726  0.000000000     0.000000000  0.250000000  0.000000000
     0.000000000  0.000000000  0.027631826     0.000000000  0.000000000  0.333333333

  Length of vectors
     0.032704726  0.032704726  0.027631826

  Shift w.r.t. Gamma in fractional coordinates (k-lattice)
     0.000000000  0.000000000  0.000000000

 
 Subroutine IBZKPT returns following result:
 ===========================================
 
 Found     12 irreducible k-points:
 
 Following reciprocal coordinates:
            Coordinates               Weight
  0.000000  0.000000  0.000000      1.000000
  0.250000  0.000000  0.000000      4.000000
  0.500000  0.000000  0.000000      2.000000
  0.250000  0.250000  0.000000      4.000000
  0.500000  0.250000  0.000000      4.000000
  0.500000  0.500000  0.000000      1.000000
  0.000000  0.000000  0.333333      2.000000
  0.250000  0.000000  0.333333      8.000000
  0.500000  0.000000  0.333333      4.000000
  0.250000  0.250000  0.333333      8.000000
  0.500000  0.250000  0.333333      8.000000
  0.500000  0.500000  0.333333      2.000000
 
 Following cartesian coordinates:
            Coordinates               Weight
  0.000000  0.000000  0.000000      1.000000
  0.031887  0.000000  0.000000      4.000000
  0.063774  0.000000  0.000000      2.000000
  0.031887  0.031887  0.000000      4.000000
  0.063774  0.031887  0.000000      4.000000
  0.063774  0.063774  0.000000      1.000000
  0.000000  0.000000  0.026941      2.000000
  0.031887  0.000000  0.026941      8.000000
  0.063774  0.000000  0.026941      4.000000
  0.031887  0.031887  0.026941      8.000000
  0.063774  0.031887  0.026941      8.000000
  0.063774  0.063774  0.026941      2.000000
 


--------------------------------------------------------------------------------------------------------




 Dimension of arrays:
   k-points           NKPTS =     12   k-points in BZ     NKDIM =     12   number of bands    NBANDS=    232
   number of dos      NEDOS =    301   number of ions     NIONS =     40
   non local maximal  LDIM  =      6   non local SUM 2l+1 LMDIM =     18
   total plane-waves  NPLWV = 324000
   max r-space proj   IRMAX =      1   max aug-charges    IRDMAX= 162686
   dimension x,y,z NGX =    60 NGY =   60 NGZ =   90
   dimension x,y,z NGXF=   120 NGYF=  120 NGZF=  180
   support grid    NGXF=   240 NGYF=  240 NGZF=  360
   ions per type =              16   7  16   1
   NGX,Y,Z   is equivalent  to a cutoff of  13.05, 13.05, 12.40 a.u.
   NGXF,Y,Z  is equivalent  to a cutoff of  26.10, 26.10, 24.81 a.u.

 SYSTEM =  unknown system                          
 POSCAR =  generated by phonopy                    

 Startparameter for this run:
   NWRITE =      2    write-flag & timer
   PREC   = accura    normal or accurate (medium, high low for compatibility)
   ISTART =      0    job   : 0-new  1-cont  2-samecut
   ICHARG =      2    charge: 1-file 2-atom 10-const
   ISPIN  =      1    spin polarized calculation?
   LNONCOLLINEAR =      F non collinear calculations
   LSORBIT =      F    spin-orbit coupling
   INIWAV =      1    electr: 0-lowe 1-rand  2-diag
   LASPH  =      F    aspherical Exc in radial PAW
 Electronic Relaxation 1
   ENCUT  =  520.0 eV  38.22 Ry    6.18 a.u.  14.21 14.21 22.43*2*pi/ulx,y,z
   ENINI  =  520.0     initial cutoff
   ENAUG  =  605.4 eV  augmentation charge cutoff
   NELM   =     60;   NELMIN=  5; NELMDL= -5     # of ELM steps 
   EDIFF  = 0.1E-07   stopping-criterion for ELM
   LREAL  =      F    real-space projection
   NLSPLINE    = F    spline interpolate recip. space projectors
   LCOMPAT=      F    compatible to vasp.4.4
   GGA_COMPAT  = T    GGA compatible to vasp.4.4-vasp.4.6
   LMAXPAW     = -100 max onsite density
   LMAXMIX     =    2 max onsite mixed and CHGCAR
   VOSKOWN=      0    Vosko Wilk Nusair interpolation
   ROPT   =    0.00000   0.00000   0.00000   0.00000
 Ionic relaxation
   EDIFFG = -.1E-04   stopping-criterion for IOM
   NSW    =    100    number of steps for IOM
   NBLOCK =      1;   KBLOCK =    100    inner block; outer block 
   IBRION =      2    ionic relax: 0-MD 1-quasi-New 2-CG
   NFREE  =      1    steps in history (QN), initial steepest desc. (CG)
   ISIF   =      2    stress and relaxation
   IWAVPR =     11    prediction:  0-non 1-charg 2-wave 3-comb
   ISYM   =      2    0-nonsym 1-usesym 2-fastsym
   LCORR  =      T    Harris-Foulkes like correction to forces

   POTIM  = 0.5000    time-step for ionic-motion
   TEIN   =    0.0    initial temperature
   TEBEG  =    0.0;   TEEND  =   0.0 temperature during run
   SMASS  =  -3.00    Nose mass-parameter (am)
   estimated Nose-frequenzy (Omega)   =  0.10E-29 period in steps = 0.13E+47 mass=  -0.134E-26a.u.
   SCALEE = 1.0000    scale energy and forces
   NPACO  =    256;   APACO  = 10.0  distance and # of slots for P.C.
   PSTRESS=    0.0 pullay stress

  Mass of Ions in am
   POMASS = 208.98 78.96 16.00 32.07
  Ionic Valenz
   ZVAL   =  15.00  6.00  6.00  6.00
  Atomic Wigner-Seitz radii
   RWIGS  =  -1.00 -1.00 -1.00 -1.00
  virtual crystal weights 
   VCA    =   1.00  1.00  1.00  1.00
   NELECT =     384.0000    total number of electrons
   NUPDOWN=      -1.0000    fix difference up-down

 DOS related values:
   EMIN   =  10.00;   EMAX   =-10.00  energy-range for DOS
   EFERMI =   0.00;   METHOD = LEGACY      
   ISMEAR =     0;   SIGMA  =   0.05  broadening in eV -4-tet -1-fermi 0-gaus

 Electronic relaxation 2 (details)
   IALGO  =     38    algorithm
   LDIAG  =      T    sub-space diagonalisation (order eigenvalues)
   LSUBROT=      F    optimize rotation matrix (better conditioning)
   TURBO    =      0    0=normal 1=particle mesh
   IRESTART =      0    0=no restart 2=restart with 2 vectors
   NREBOOT  =      0    no. of reboots
   NMIN     =      0    reboot dimension
   EREF     =   0.00    reference energy to select bands
   IMIX   =      4    mixing-type and parameters
     AMIX     =   0.40;   BMIX     =  1.00
     AMIX_MAG =   1.60;   BMIX_MAG =  1.00
     AMIN     =   0.10
     WC   =   100.;   INIMIX=   1;  MIXPRE=   1;  MAXMIX= -45

 Intra band minimization:
   WEIMIN = 0.0010     energy-eigenvalue tresh-hold
   EBREAK =  0.11E-10  absolut break condition
   DEPER  =   0.30     relativ break condition  

   TIME   =   0.40     timestep for ELM

  volume/ion in A,a.u.               =      17.62       118.92
  Fermi-wavevector in a.u.,A,eV,Ry     =   1.337034  2.526628 24.322598  1.787661
  Thomas-Fermi vector in A             =   2.465614
 
 Write flags
   LWAVE        =      F    write WAVECAR
   LDOWNSAMPLE  =      F    k-point downsampling of WAVECAR
   LCHARG       =      F    write CHGCAR
   LVTOT        =      F    write LOCPOT, total local potential
   LVHAR        =      F    write LOCPOT, Hartree potential only
   WRT_POTENTIAL= false  ! write potential to hdf5 file
   LELF         =      F    write electronic localiz. function (ELF)
   LORBIT       =      0    0 simple, 1 ext, 2 COOP (PROOUT), +10 PAW based schemes


 Dipole corrections
   LMONO      =      F    monopole corrections only (constant potential shift)
   LDIPOL     =      F    correct potential (dipole corrections)
   IDIPOL     =      0    1-x, 2-y, 3-z, 4-all directions 
   EPSILON    =  1.0000000 bulk dielectric constant
   LVACPOTAV  =      F  vacuum potentials using an averaging scheme for the charge density
   VACPOTFLAT =  0.1000000 required flatness to determine vacuum potential
 Exchange correlation treatment:
   GGA     = PE    functional components
   XC_C    = 1    coefficients multiplying the functional components
   LIBXC   =     F    Libxc                    
   VOSKOWN =     0    Vosko Wilk Nusair interpolation
   LHFCALC =     F    Hartree Fock is set to
   LHFONE  =     F    Hartree Fock one center treatment
   AEXX    =    0.0000 exact exchange contribution

 Parameters of functionals:
   PE:
     No parameter
 
 Van der Waals corrections
   IVDW    =     0    specifies the selected vdW correction

 Linear response parameters
   LEPSILON=     F    determine dielectric tensor
   LRPA    =     F    only Hartree local field effects (RPA)
   LNABLA  =     F    use nabla operator in PAW spheres
   LVEL    =     F    velocity operator in full k-point grid
   CSHIFT  =0.1000    complex shift for real part using Kramers Kronig
   OMEGAMAX=  -1.0    maximum frequency
   DEG_THRESHOLD= 0.2000000E-02 threshold for treating states as degnerate
   RTIME   =   -0.100 relaxation time in fs
  (WPLASMAI=    0.000 imaginary part of plasma frequency in eV, 0.658/RTIME)
   DFIELD  = 0.0000000 0.0000000 0.0000000 field for delta impulse in time
 
  Optional k-point grid parameters
   LKPOINTS_OPT  =     F    use optional k-point grid
   KPOINTS_OPT_MODE=     1    mode for optional k-point grid
 
 Orbital magnetization related:
   ORBITALMAG=     F  switch on orbital magnetization
   LCHIMAG   =     F  perturbation theory with respect to B field
   DQ        =  0.001000  dq finite difference perturbation B field
   LLRAUG    =     F  two centre corrections for induced B field
   LBONE     =     F  B-component reconstruction in AE one-centre
   LVGVCALC  =     T  calculate vGv susceptibility
   LVGVAPPL  =     F  apply vGv susceptibility instead of pGv for G=0

 Random number generation:
   RANDOM_GENERATOR = DEFAULT
   PCG_SEED         = not used


--------------------------------------------------------------------------------------------------------


 conjugate gradient relaxation of ions
 charge density and potential will be updated during run
 non-spin polarized calculation
 Variant of blocked Davidson
 Davidson routine will perform the subspace rotation
 perform sub-space diagonalisation
    after iterative eigenvector-optimisation
 modified Broyden-mixing scheme, WC =      100.0
 initial mixing is a Kerker type mixing with AMIX =  0.4000 and BMIX =      1.0000
 Hartree-type preconditioning will be used
 using additional bands           40
 reciprocal scheme for non local part
 use partial core corrections
 calculate Harris-corrections to forces 
   (improved forces if not selfconsistent)
 use gradient corrections 
 use of overlap-Matrix (Vanderbilt PP)
 Gauss-broadening in eV      SIGMA  =   0.05


--------------------------------------------------------------------------------------------------------


  energy-cutoff  :      520.00
  volume of cell :      704.90
      direct lattice vectors                 reciprocal lattice vectors
     7.644155072  0.000000000  0.000000000     0.130818905  0.000000000  0.000000000
     0.000000000  7.644155072  0.000000000     0.000000000  0.130818905  0.000000000
     0.000000000  0.000000000 12.063384261     0.000000000  0.000000000  0.082895478

  length of vectors
     7.644155072  7.644155072 12.063384261     0.130818905  0.130818905  0.082895478


 
 k-points in units of 2pi/SCALE and weight: K-Spacing Value to Generate K-Mesh: 0.03
   0.00000000  0.00000000  0.00000000       0.021
   0.03188711  0.00000000  0.00000000       0.083
   0.06377422  0.00000000  0.00000000       0.042
   0.03188711  0.03188711  0.00000000       0.083
   0.06377422  0.03188711  0.00000000       0.083
   0.06377422  0.06377422  0.00000000       0.021
   0.00000000  0.00000000  0.02694103       0.042
   0.03188711  0.00000000  0.02694103       0.167
   0.06377422  0.00000000  0.02694103       0.083
   0.03188711  0.03188711  0.02694103       0.167
   0.06377422  0.03188711  0.02694103       0.167
   0.06377422  0.06377422  0.02694103       0.042
 
 k-points in reciprocal lattice and weights: K-Spacing Value to Generate K-Mesh: 0.03
   0.00000000  0.00000000  0.00000000       0.021
   0.25000000  0.00000000  0.00000000       0.083
   0.50000000  0.00000000  0.00000000       0.042
   0.25000000  0.25000000  0.00000000       0.083
   0.50000000  0.25000000  0.00000000       0.083
   0.50000000  0.50000000  0.00000000       0.021
   0.00000000  0.00000000  0.33333333       0.042
   0.25000000  0.00000000  0.33333333       0.167
   0.50000000  0.00000000  0.33333333       0.083
   0.25000000  0.25000000  0.33333333       0.167
   0.50000000  0.25000000  0.33333333       0.167
   0.50000000  0.50000000  0.33333333       0.042
 
 position of ions in fractional coordinates (direct lattice) 
   0.24872761  0.24872761  0.85775074
   0.75127239  0.24872761  0.85775074
   0.24872761  0.75127239  0.85775074
   0.75127239  0.75127239  0.85775074
   0.00000000  0.00000000  0.64311026
   0.50000000  0.00000000  0.64400048
   0.00000000  0.50000000  0.64400048
   0.50000000  0.50000000  0.64497248
   0.00000000  0.00000000  0.35688974
   0.50000000  0.00000000  0.35599952
   0.00000000  0.50000000  0.35599952
   0.50000000  0.50000000  0.35502752
   0.24872761  0.24872761  0.14224926
   0.75127239  0.24872761  0.14224926
   0.24872761  0.75127239  0.14224926
   0.75127239  0.75127239  0.14224926
   0.50000000  0.00000000  0.00000000
   0.00000000  0.50000000  0.00000000
   0.50000000  0.50000000  0.00000000
   0.25043556  0.25043556  0.50000000
   0.74956444  0.25043556  0.50000000
   0.25043556  0.74956444  0.50000000
   0.74956444  0.74956444  0.50000000
   0.00000000  0.24940968  0.75027413
   0.50000000  0.24954250  0.75154683
   0.00000000  0.75059032  0.75027413
   0.50000000  0.75045750  0.75154683
   0.24940968  0.00000000  0.75027413
   0.75059032  0.00000000  0.75027413
   0.24954250  0.50000000  0.75154683
   0.75045750  0.50000000  0.75154683
   0.24940968  0.00000000  0.24972587
   0.75059032  0.00000000  0.24972587
   0.24954250  0.50000000  0.24845317
   0.75045750  0.50000000  0.24845317
   0.00000000  0.24940968  0.24972587
   0.50000000  0.24954250  0.24845317
   0.00000000  0.75059032  0.24972587
   0.50000000  0.75045750  0.24845317
   0.00000000  0.00000000  0.00000000
 
 position of ions in cartesian coordinates  (Angst):
   1.90131245  1.90131245 10.34737682
   5.74284263  1.90131245 10.34737682
   1.90131245  5.74284263 10.34737682
   5.74284263  5.74284263 10.34737682
   0.00000000  0.00000000  7.75808618
   3.82207754  0.00000000  7.76882522
   0.00000000  3.82207754  7.76882522
   3.82207754  3.82207754  7.78055082
   0.00000000  0.00000000  4.30529808
   3.82207754  0.00000000  4.29455904
   0.00000000  3.82207754  4.29455904
   3.82207754  3.82207754  4.28283344
   1.90131245  1.90131245  1.71600745
   5.74284263  1.90131245  1.71600745
   1.90131245  5.74284263  1.71600745
   5.74284263  5.74284263  1.71600745
   3.82207754  0.00000000  0.00000000
   0.00000000  3.82207754  0.00000000
   3.82207754  3.82207754  0.00000000
   1.91436828  1.91436828  6.03169213
   5.72978679  1.91436828  6.03169213
   1.91436828  5.72978679  6.03169213
   5.72978679  5.72978679  6.03169213
   0.00000000  1.90652631  9.05084515
   3.82207754  1.90754156  9.06619815
   0.00000000  5.73762876  9.05084515
   3.82207754  5.73661351  9.06619815
   1.90652631  0.00000000  9.05084515
   5.73762876  0.00000000  9.05084515
   1.90754156  3.82207754  9.06619815
   5.73661351  3.82207754  9.06619815
   1.90652631  0.00000000  3.01253911
   5.73762876  0.00000000  3.01253911
   1.90754156  3.82207754  2.99718611
   5.73661351  3.82207754  2.99718611
   0.00000000  1.90652631  3.01253911
   3.82207754  1.90754156  2.99718611
   0.00000000  5.73762876  3.01253911
   3.82207754  5.73661351  2.99718611
   0.00000000  0.00000000  0.00000000
 


--------------------------------------------------------------------------------------------------------


 k-point     1 :   0.0000 0.0000 0.0000  plane waves:   18917
 k-point     2 :   0.2500 0.0000 0.0000  plane waves:   18988
 k-point     3 :   0.5000 0.0000 0.0000  plane waves:   19020
 k-point     4 :   0.2500 0.2500 0.0000  plane waves:   18974
 k-point     5 :   0.5000 0.2500 0.0000  plane waves:   18974
 k-point     6 :   0.5000 0.5000 0.0000  plane waves:   18912
 k-point     7 :   0.0000 0.0000 0.3333  plane waves:   18969
 k-point     8 :   0.2500 0.0000 0.3333  plane waves:   18967
 k-point     9 :   0.5000 0.0000 0.3333  plane waves:   19006
 k-point    10 :   0.2500 0.2500 0.3333  plane waves:   18950
 k-point    11 :   0.5000 0.2500 0.3333  plane waves:   19006
 k-point    12 :   0.5000 0.5000 0.3333  plane waves:   18964

 maximum and minimum number of plane-waves per node :      2144     2077

 maximum number of plane-waves:     19020
 maximum index in each direction: 
   IXMAX=   14   IYMAX=   14   IZMAX=   22
   IXMIN=  -14   IYMIN=  -14   IZMIN=  -22


 parallel 3D FFT for wavefunctions:
    minimum data exchange during FFTs selected (reduces bandwidth)
 parallel 3D FFT for charge:
    minimum data exchange during FFTs selected (reduces bandwidth)


 total amount of memory used by VASP MPI-rank0    90372. kBytes
=======================================================================

   base      :      30000. kBytes
   nonl-proj :      15980. kBytes
   fftplans  :      12201. kBytes
   grid      :       7793. kBytes
   one-center:         77. kBytes
   wavefun   :      24321. kBytes
 
     INWAV:  cpu time      0.0000: real time      0.0000
 Broyden mixing: mesh for mixing (old mesh)
   NGX = 29   NGY = 29   NGZ = 45
  (NGX  =120   NGY  =120   NGZ  =180)
  gives a total of  37845 points

 initial charge density was supplied:
 charge density of overlapping atoms calculated
 number of electron     384.0000000 magnetization 
 keeping initial charge density in first step


--------------------------------------------------------------------------------------------------------


 Maximum index for augmentation-charges         5227 (set IRDMAX)


--------------------------------------------------------------------------------------------------------


 First call to EWALD:  gamma=   0.199
 Maximum number of real-space cells 3x 3x 2
 Maximum number of reciprocal cells 2x 2x 4

    FEWALD:  cpu time      0.0025: real time      0.0025


--------------------------------------- Ionic step        1  -------------------------------------------




--------------------------------------- Iteration      1(   1)  ---------------------------------------


    POTLOK:  cpu time      0.1608: real time      0.1608
    SETDIJ:  cpu time      0.6731: real time      0.6732
     EDDAV:  cpu time     29.8182: real time     29.8283
       DOS:  cpu time      0.0020: real time      0.0021
    --------------------------------------------
      LOOP:  cpu time     30.6542: real time     30.6645

 eigenvalue-minimisations  :  5568
 total energy-change (2. order) : 0.5820562E+04  (-0.1744100E+05)
 number of electron     384.0000000 magnetization 
 augmentation part      384.0000000 magnetization 

 Free energy of the ion-electron system (eV)
  ---------------------------------------------------
  alpha Z        PSCENC =      1433.04682846
  Ewald energy   TEWEN  =    -30513.45027825
  -Hartree energ DENC   =    -10745.36484280
  -exchange      EXHF   =         0.00000000
  -V(xc)+E(xc)   XCENC  =      1241.54188989
  PAW double counting   =     34040.00696010   -33495.80632930
  entropy T*S    EENTRO =        -0.00585041
  eigenvalues    EBANDS =      3518.94142212
  atomic energy  EATOM  =     40341.65184589
  Solvation  Ediel_sol  =         0.00000000
  ---------------------------------------------------
  free energy    TOTEN  =      5820.56164573 eV

  energy without entropy =     5820.56749613  energy(sigma->0) =     5820.56457093


--------------------------------------------------------------------------------------------------------




--------------------------------------- Iteration      1(   2)  ---------------------------------------


     EDDAV:  cpu time     29.8184: real time     29.8305
       DOS:  cpu time      0.0020: real time      0.0021
    --------------------------------------------
      LOOP:  cpu time     29.8204: real time     29.8325

 eigenvalue-minimisations  :  5568
 total energy-change (2. order) :-0.4794616E+04  (-0.4652799E+04)
 number of electron     384.0000000 magnetization 
 augmentation part      384.0000000 magnetization 

 Free energy of the ion-electron system (eV)
  ---------------------------------------------------
  alpha Z        PSCENC =      1433.04682846
  Ewald energy   TEWEN  =    -30513.45027825
  -Hartree energ DENC   =    -10745.36484280
  -exchange      EXHF   =         0.00000000
  -V(xc)+E(xc)   XCENC  =      1241.54188989
  PAW double counting   =     34040.00696010   -33495.80632930
  entropy T*S    EENTRO =        -0.00628589
  eigenvalues    EBANDS =     -1275.67410613
  atomic energy  EATOM  =     40341.65184589
  Solvation  Ediel_sol  =         0.00000000
  ---------------------------------------------------
  free energy    TOTEN  =      1025.94568199 eV

  energy without entropy =     1025.95196788  energy(sigma->0) =     1025.94882493


--------------------------------------------------------------------------------------------------------




--------------------------------------- Iteration      1(   3)  ---------------------------------------


     EDDAV:  cpu time     32.2126: real time     32.2193
       DOS:  cpu time      0.0025: real time      0.0026
    --------------------------------------------
      LOOP:  cpu time     32.2150: real time     32.2219

 eigenvalue-minimisations  :  6200
 total energy-change (2. order) :-0.1127740E+04  (-0.1050325E+04)
 number of electron     384.0000000 magnetization 
 augmentation part      384.0000000 magnetization 

 Free energy of the ion-electron system (eV)
  ---------------------------------------------------
  alpha Z        PSCENC =      1433.04682846
  Ewald energy   TEWEN  =    -30513.45027825
  -Hartree energ DENC   =    -10745.36484280
  -exchange      EXHF   =         0.00000000
  -V(xc)+E(xc)   XCENC  =      1241.54188989
  PAW double counting   =     34040.00696010   -33495.80632930
  entropy T*S    EENTRO =        -0.00102293
  eigenvalues    EBANDS =     -2403.41922880
  atomic energy  EATOM  =     40341.65184589
  Solvation  Ediel_sol  =         0.00000000
  ---------------------------------------------------
  free energy    TOTEN  =      -101.79417772 eV

  energy without entropy =     -101.79315479  energy(sigma->0) =     -101.79366626


--------------------------------------------------------------------------------------------------------




--------------------------------------- Iteration      1(   4)  ---------------------------------------


     EDDAV:  cpu time     34.3470: real time     34.3516
       DOS:  cpu time      0.0031: real time      0.0033
    --------------------------------------------
      LOOP:  cpu time     34.3501: real time     34.3548

 eigenvalue-minimisations  :  6768
 total energy-change (2. order) :-0.1336524E+03  (-0.1296981E+03)
 number of electron     384.0000000 magnetization 
 augmentation part      384.0000000 magnetization 

 Free energy of the ion-electron system (eV)
  ---------------------------------------------------
  alpha Z        PSCENC =      1433.04682846
  Ewald energy   TEWEN  =    -30513.45027825
  -Hartree energ DENC   =    -10745.36484280
  -exchange      EXHF   =         0.00000000
  -V(xc)+E(xc)   XCENC  =      1241.54188989
  PAW double counting   =     34040.00696010   -33495.80632930
  entropy T*S    EENTRO =        -0.00000000
  eigenvalues    EBANDS =     -2537.07261425
  atomic energy  EATOM  =     40341.65184589
  Solvation  Ediel_sol  =         0.00000000
  ---------------------------------------------------
  free energy    TOTEN  =      -235.44654024 eV

  energy without entropy =     -235.44654024  energy(sigma->0) =     -235.44654024


--------------------------------------------------------------------------------------------------------




--------------------------------------- Iteration      1(   5)  ---------------------------------------


     EDDAV:  cpu time     33.7335: real time     33.7340
       DOS:  cpu time      0.0013: real time      0.0014
    CHARGE:  cpu time      1.2947: real time      1.2948
    MIXING:  cpu time      0.0059: real time      0.0059
    --------------------------------------------
      LOOP:  cpu time     35.0355: real time     35.0363

 eigenvalue-minimisations  :  6600
 total energy-change (2. order) :-0.5697595E+01  (-0.5612634E+01)
 number of electron     384.0000004 magnetization 
 augmentation part       98.4433841 magnetization 

 Broyden mixing:
  rms(total) = 0.34176E+01    rms(broyden)= 0.34171E+01
  rms(prec ) = 0.43754E+01
  weight for this iteration     100.00

 Free energy of the ion-electron system (eV)
  ---------------------------------------------------
  alpha Z        PSCENC =      1433.04682846
  Ewald energy   TEWEN  =    -30513.45027825
  -Hartree energ DENC   =    -10745.36484280
  -exchange      EXHF   =         0.00000000
  -V(xc)+E(xc)   XCENC  =      1241.54188989
  PAW double counting   =     34040.00696010   -33495.80632930
  entropy T*S    EENTRO =        -0.00000000
  eigenvalues    EBANDS =     -2542.77020955
  atomic energy  EATOM  =     40341.65184589
  Solvation  Ediel_sol  =         0.00000000
  ---------------------------------------------------
  free energy    TOTEN  =      -241.14413554 eV

  energy without entropy =     -241.14413554  energy(sigma->0) =     -241.14413554


--------------------------------------------------------------------------------------------------------




--------------------------------------- Iteration      1(   6)  ---------------------------------------


    POTLOK:  cpu time      0.1586: real time      0.1587
    SETDIJ:  cpu time      0.6675: real time      0.6679
     EDDAV:  cpu time     38.2775: real time     38.2887
       DOS:  cpu time      0.0022: real time      0.0023
    CHARGE:  cpu time      1.2897: real time      1.2905
    MIXING:  cpu time      0.0082: real time      0.0082
    --------------------------------------------
      LOOP:  cpu time     40.4037: real time     40.4163

 eigenvalue-minimisations  :  7808
 total energy-change (2. order) : 0.3391664E+02  (-0.1371552E+02)
 number of electron     384.0000004 magnetization 
 augmentation part       95.3141140 magnetization 

 Broyden mixing:
  rms(total) = 0.12666E+01    rms(broyden)= 0.12653E+01
  rms(prec ) = 0.15176E+01
  weight for this iteration     100.00

 eigenvalues of (default mixing * dielectric matrix)
  average eigenvalue GAMMA=   0.7905
  0.7905

 Free energy of the ion-electron system (eV)
  ---------------------------------------------------
  alpha Z        PSCENC =      1433.04682846
  Ewald energy   TEWEN  =    -30513.45027825
  -Hartree energ DENC   =    -10994.52377564
  -exchange      EXHF   =         0.00000000
  -V(xc)+E(xc)   XCENC  =      1261.04161643
  PAW double counting   =     34888.90184256   -34305.43867766
  entropy T*S    EENTRO =        -0.00000000
  eigenvalues    EBANDS =     -2318.45689425
  atomic energy  EATOM  =     40341.65184589
  Solvation  Ediel_sol  =         0.00000000
  ---------------------------------------------------
  free energy    TOTEN  =      -207.22749244 eV

  energy without entropy =     -207.22749244  energy(sigma->0) =     -207.22749244


--------------------------------------------------------------------------------------------------------




--------------------------------------- Iteration      1(   7)  ---------------------------------------


    POTLOK:  cpu time      0.1592: real time      0.1594
    SETDIJ:  cpu time      0.6689: real time      0.6689
     EDDAV:  cpu time     31.8640: real time     31.8737
       DOS:  cpu time      0.0024: real time      0.0026
    CHARGE:  cpu time      1.2936: real time      1.2946
    MIXING:  cpu time      0.0055: real time      0.0055
    --------------------------------------------
      LOOP:  cpu time     33.9936: real time     34.0046

 eigenvalue-minimisations  :  6112
 total energy-change (2. order) :-0.4094946E+00  (-0.3003185E+01)
 number of electron     384.0000004 magnetization 
 augmentation part       94.9913669 magnetization 

 Broyden mixing:
  rms(total) = 0.82769E+00    rms(broyden)= 0.82769E+00
  rms(prec ) = 0.90710E+00
  weight for this iteration     100.00

 eigenvalues of (default mixing * dielectric matrix)
  average eigenvalue GAMMA=   1.1190
  1.1190  1.1190

 Free energy of the ion-electron system (eV)
  ---------------------------------------------------
  alpha Z        PSCENC =      1433.04682846
  Ewald energy   TEWEN  =    -30513.45027825
  -Hartree energ DENC   =    -10915.72980041
  -exchange      EXHF   =         0.00000000
  -V(xc)+E(xc)   XCENC  =      1258.34431242
  PAW double counting   =     35792.50115449   -35202.53817134
  entropy T*S    EENTRO =        -0.00000000
  eigenvalues    EBANDS =     -2401.46287828
  atomic energy  EATOM  =     40341.65184589
  Solvation  Ediel_sol  =         0.00000000
  ---------------------------------------------------
  free energy    TOTEN  =      -207.63698702 eV

  energy without entropy =     -207.63698702  energy(sigma->0) =     -207.63698702


--------------------------------------------------------------------------------------------------------




--------------------------------------- Iteration      1(   8)  ---------------------------------------


    POTLOK:  cpu time      0.1582: real time      0.1584
    SETDIJ:  cpu time      0.6636: real time      0.6636
     EDDAV:  cpu time     39.2592: real time     39.2821
       DOS:  cpu time      0.0020: real time      0.0021
    CHARGE:  cpu time      1.2898: real time      1.2915
    MIXING:  cpu time      0.0076: real time      0.0076
    --------------------------------------------
      LOOP:  cpu time     41.3805: real time     41.4054

 eigenvalue-minimisations  :  8080
 total energy-change (2. order) :-0.1100886E+00  (-0.5801454E+00)
 number of electron     384.0000004 magnetization 
 augmentation part       95.3254712 magnetization 

 Broyden mixing:
  rms(total) = 0.37139E+00    rms(broyden)= 0.37128E+00
  rms(prec ) = 0.43667E+00
  weight for this iteration     100.00

 eigenvalues of (default mixing * dielectric matrix)
  average eigenvalue GAMMA=   1.3355
  2.3160  0.8453  0.8453

 Free energy of the ion-electron system (eV)
  ---------------------------------------------------
  alpha Z        PSCENC =      1433.04682846
  Ewald energy   TEWEN  =    -30513.45027825
  -Hartree energ DENC   =    -10899.39740152
  -exchange      EXHF   =         0.00000000
  -V(xc)+E(xc)   XCENC  =      1257.38201069
  PAW double counting   =     36282.16710534   -35688.01734909
  entropy T*S    EENTRO =        -0.00000000
  eigenvalues    EBANDS =     -2421.12983716
  atomic energy  EATOM  =     40341.65184589
  Solvation  Ediel_sol  =         0.00000000
  ---------------------------------------------------
  free energy    TOTEN  =      -207.74707562 eV

  energy without entropy =     -207.74707562  energy(sigma->0) =     -207.74707562


--------------------------------------------------------------------------------------------------------




--------------------------------------- Iteration      1(   9)  ---------------------------------------


    POTLOK:  cpu time      0.1576: real time      0.1579
    SETDIJ:  cpu time      0.6658: real time      0.6669
     EDDAV:  cpu time     36.7879: real time     36.7882
       DOS:  cpu time      0.0017: real time      0.0018
    CHARGE:  cpu time      1.2925: real time      1.2928
    MIXING:  cpu time      0.0063: real time      0.0063
    --------------------------------------------
      LOOP:  cpu time     38.9118: real time     38.9138

 eigenvalue-minimisations  :  7416
 total energy-change (2. order) : 0.9312187E-01  (-0.6133567E-01)
 number of electron     384.0000004 magnetization 
 augmentation part       95.0523560 magnetization 

 Broyden mixing:
  rms(total) = 0.13590E+00    rms(broyden)= 0.13588E+00
  rms(prec ) = 0.15912E+00
  weight for this iteration     100.00

 eigenvalues of (default mixing * dielectric matrix)
  average eigenvalue GAMMA=   1.3374
  2.4918  1.1676  0.8451  0.8451

 Free energy of the ion-electron system (eV)
  ---------------------------------------------------
  alpha Z        PSCENC =      1433.04682846
  Ewald energy   TEWEN  =    -30513.45027825
  -Hartree energ DENC   =    -10929.21863369
  -exchange      EXHF   =         0.00000000
  -V(xc)+E(xc)   XCENC  =      1259.31291428
  PAW double counting   =     36768.61712892   -36169.91974636
  entropy T*S    EENTRO =        -0.00000000
  eigenvalues    EBANDS =     -2397.69401300
  atomic energy  EATOM  =     40341.65184589
  Solvation  Ediel_sol  =         0.00000000
  ---------------------------------------------------
  free energy    TOTEN  =      -207.65395375 eV

  energy without entropy =     -207.65395375  energy(sigma->0) =     -207.65395375


--------------------------------------------------------------------------------------------------------




--------------------------------------- Iteration      1(  10)  ---------------------------------------


    POTLOK:  cpu time      0.1591: real time      0.1592
    SETDIJ:  cpu time      0.6678: real time      0.6679
     EDDAV:  cpu time     35.1402: real time     35.1405
       DOS:  cpu time      0.0016: real time      0.0017
    CHARGE:  cpu time      1.2942: real time      1.2943
    MIXING:  cpu time      0.0064: real time      0.0064
    --------------------------------------------
      LOOP:  cpu time     37.2693: real time     37.2699

 eigenvalue-minimisations  :  6984
 total energy-change (2. order) : 0.4722424E-02  (-0.1488949E-01)
 number of electron     384.0000004 magnetization 
 augmentation part       95.0481367 magnetization 

 Broyden mixing:
  rms(total) = 0.35140E-01    rms(broyden)= 0.35129E-01
  rms(prec ) = 0.37291E-01
  weight for this iteration     100.00

 eigenvalues of (default mixing * dielectric matrix)
  average eigenvalue GAMMA=   1.1916
  2.4452  1.1076  0.8488  0.8488  0.7077

 Free energy of the ion-electron system (eV)
  ---------------------------------------------------
  alpha Z        PSCENC =      1433.04682846
  Ewald energy   TEWEN  =    -30513.45027825
  -Hartree energ DENC   =    -10922.35415656
  -exchange      EXHF   =         0.00000000
  -V(xc)+E(xc)   XCENC  =      1259.06746933
  PAW double counting   =     36931.53405514   -36332.89647153
  entropy T*S    EENTRO =        -0.00000000
  eigenvalues    EBANDS =     -2404.24852381
  atomic energy  EATOM  =     40341.65184589
  Solvation  Ediel_sol  =         0.00000000
  ---------------------------------------------------
  free energy    TOTEN  =      -207.64923132 eV

  energy without entropy =     -207.64923132  energy(sigma->0) =     -207.64923132


--------------------------------------------------------------------------------------------------------




--------------------------------------- Iteration      1(  11)  ---------------------------------------


    POTLOK:  cpu time      0.1587: real time      0.1588
    SETDIJ:  cpu time      0.6684: real time      0.6684
     EDDAV:  cpu time     35.8768: real time     35.8766
       DOS:  cpu time      0.0018: real time      0.0020
    CHARGE:  cpu time      1.2940: real time      1.2942
    MIXING:  cpu time      0.0064: real time      0.0064
    --------------------------------------------
      LOOP:  cpu time     38.0061: real time     38.0064

 eigenvalue-minimisations  :  7168
 total energy-change (2. order) :-0.1759647E-02  (-0.1908394E-02)
 number of electron     384.0000004 magnetization 
 augmentation part       95.0588633 magnetization 

 Broyden mixing:
  rms(total) = 0.31580E-01    rms(broyden)= 0.31578E-01
  rms(prec ) = 0.34225E-01
  weight for this iteration     100.00

 eigenvalues of (default mixing * dielectric matrix)
  average eigenvalue GAMMA=   1.3899
  2.0549  1.7358  1.7358  0.8356  0.8356  1.1419

 Free energy of the ion-electron system (eV)
  ---------------------------------------------------
  alpha Z        PSCENC =      1433.04682846
  Ewald energy   TEWEN  =    -30513.45027825
  -Hartree energ DENC   =    -10922.14831874
  -exchange      EXHF   =         0.00000000
  -V(xc)+E(xc)   XCENC  =      1259.07482175
  PAW double counting   =     36909.01825425   -36310.73827043
  entropy T*S    EENTRO =        -0.00000000
  eigenvalues    EBANDS =     -2404.10587391
  atomic energy  EATOM  =     40341.65184589
  Solvation  Ediel_sol  =         0.00000000
  ---------------------------------------------------
  free energy    TOTEN  =      -207.65099097 eV

  energy without entropy =     -207.65099097  energy(sigma->0) =     -207.65099097


--------------------------------------------------------------------------------------------------------




--------------------------------------- Iteration      1(  12)  ---------------------------------------


    POTLOK:  cpu time      0.1590: real time      0.1591
    SETDIJ:  cpu time      0.6655: real time      0.6658
     EDDAV:  cpu time     37.8032: real time     37.8042
       DOS:  cpu time      0.0021: real time      0.0022
    CHARGE:  cpu time      1.2913: real time      1.2927
    MIXING:  cpu time      0.0072: real time      0.0072
    --------------------------------------------
      LOOP:  cpu time     39.9284: real time     39.9312

 eigenvalue-minimisations  :  7688
 total energy-change (2. order) :-0.6067491E-03  (-0.8108624E-03)
 number of electron     384.0000004 magnetization 
 augmentation part       95.0324071 magnetization 

 Broyden mixing:
  rms(total) = 0.16644E-01    rms(broyden)= 0.16640E-01
  rms(prec ) = 0.19546E-01
  weight for this iteration     100.00

 eigenvalues of (default mixing * dielectric matrix)
  average eigenvalue GAMMA=   1.3984
  2.4457  2.3966  0.8238  0.8238  1.1610  1.1610  0.9769

 Free energy of the ion-electron system (eV)
  ---------------------------------------------------
  alpha Z        PSCENC =      1433.04682846
  Ewald energy   TEWEN  =    -30513.45027825
  -Hartree energ DENC   =    -10923.00504664
  -exchange      EXHF   =         0.00000000
  -V(xc)+E(xc)   XCENC  =      1259.17846006
  PAW double counting   =     36885.42170877   -36287.83545088
  entropy T*S    EENTRO =        -0.00000000
  eigenvalues    EBANDS =     -2402.65966514
  atomic energy  EATOM  =     40341.65184589
  Solvation  Ediel_sol  =         0.00000000
  ---------------------------------------------------
  free energy    TOTEN  =      -207.65159772 eV

  energy without entropy =     -207.65159772  energy(sigma->0) =     -207.65159772


--------------------------------------------------------------------------------------------------------




--------------------------------------- Iteration      1(  13)  ---------------------------------------


    POTLOK:  cpu time      0.1574: real time      0.1574
    SETDIJ:  cpu time      0.6661: real time      0.6664
     EDDAV:  cpu time     33.7884: real time     33.7928
       DOS:  cpu time      0.0017: real time      0.0018
    CHARGE:  cpu time      1.2937: real time      1.2939
    MIXING:  cpu time      0.0067: real time      0.0067
    --------------------------------------------
      LOOP:  cpu time     35.9139: real time     35.9191

 eigenvalue-minimisations  :  6624
 total energy-change (2. order) : 0.1486957E-03  (-0.1021690E-03)
 number of electron     384.0000004 magnetization 
 augmentation part       95.0339029 magnetization 

 Broyden mixing:
  rms(total) = 0.67189E-02    rms(broyden)= 0.67184E-02
  rms(prec ) = 0.75820E-02
  weight for this iteration     100.00

 eigenvalues of (default mixing * dielectric matrix)
  average eigenvalue GAMMA=   1.4057
  2.5492  2.5492  1.2501  0.8324  0.8324  0.9538  1.1392  1.1392

 Free energy of the ion-electron system (eV)
  ---------------------------------------------------
  alpha Z        PSCENC =      1433.04682846
  Ewald energy   TEWEN  =    -30513.45027825
  -Hartree energ DENC   =    -10922.48533763
  -exchange      EXHF   =         0.00000000
  -V(xc)+E(xc)   XCENC  =      1259.15525343
  PAW double counting   =     36883.42955876   -36286.08917910
  entropy T*S    EENTRO =        -0.00000000
  eigenvalues    EBANDS =     -2402.91014059
  atomic energy  EATOM  =     40341.65184589
  Solvation  Ediel_sol  =         0.00000000
  ---------------------------------------------------
  free energy    TOTEN  =      -207.65144902 eV

  energy without entropy =     -207.65144902  energy(sigma->0) =     -207.65144902


--------------------------------------------------------------------------------------------------------




--------------------------------------- Iteration      1(  14)  ---------------------------------------


    POTLOK:  cpu time      0.1588: real time      0.1588
    SETDIJ:  cpu time      0.6687: real time      0.6688
     EDDAV:  cpu time     33.7195: real time     33.7233
       DOS:  cpu time      0.0018: real time      0.0020
    CHARGE:  cpu time      1.2945: real time      1.2949
    MIXING:  cpu time      0.0068: real time      0.0068
    --------------------------------------------
      LOOP:  cpu time     35.8501: real time     35.8545

 eigenvalue-minimisations  :  6608
 total energy-change (2. order) : 0.4155116E-05  (-0.2035272E-04)
 number of electron     384.0000004 magnetization 
 augmentation part       95.0363161 magnetization 

 Broyden mixing:
  rms(total) = 0.37943E-02    rms(broyden)= 0.37940E-02
  rms(prec ) = 0.43592E-02
  weight for this iteration     100.00

 eigenvalues of (default mixing * dielectric matrix)
  average eigenvalue GAMMA=   1.3455
  2.4836  2.4836  1.4313  1.2447  1.2447  0.9605  0.8319  0.8319  0.5976

 Free energy of the ion-electron system (eV)
  ---------------------------------------------------
  alpha Z        PSCENC =      1433.04682846
  Ewald energy   TEWEN  =    -30513.45027825
  -Hartree energ DENC   =    -10922.50605870
  -exchange      EXHF   =         0.00000000
  -V(xc)+E(xc)   XCENC  =      1259.15467789
  PAW double counting   =     36879.18651160   -36281.85248118
  entropy T*S    EENTRO =        -0.00000000
  eigenvalues    EBANDS =     -2402.88249060
  atomic energy  EATOM  =     40341.65184589
  Solvation  Ediel_sol  =         0.00000000
  ---------------------------------------------------
  free energy    TOTEN  =      -207.65144487 eV

  energy without entropy =     -207.65144487  energy(sigma->0) =     -207.65144487


--------------------------------------------------------------------------------------------------------




--------------------------------------- Iteration      1(  15)  ---------------------------------------


    POTLOK:  cpu time      0.1590: real time      0.1592
    SETDIJ:  cpu time      0.6650: real time      0.6651
     EDDAV:  cpu time     36.2611: real time     36.2614
       DOS:  cpu time      0.0018: real time      0.0019
    CHARGE:  cpu time      1.2886: real time      1.2899
    MIXING:  cpu time      0.0093: real time      0.0093
    --------------------------------------------
      LOOP:  cpu time     38.3848: real time     38.3869

 eigenvalue-minimisations  :  7280
 total energy-change (2. order) : 0.1606918E-04  (-0.7495488E-05)
 number of electron     384.0000004 magnetization 
 augmentation part       95.0384886 magnetization 

 Broyden mixing:
  rms(total) = 0.10737E-02    rms(broyden)= 0.10724E-02
  rms(prec ) = 0.11324E-02
  weight for this iteration     100.00

 eigenvalues of (default mixing * dielectric matrix)
  average eigenvalue GAMMA=   1.4157
  2.6382  2.6382  2.0381  1.2685  1.2685  0.9467  0.8377  0.8377  0.8419  0.8419

 Free energy of the ion-electron system (eV)
  ---------------------------------------------------
  alpha Z        PSCENC =      1433.04682846
  Ewald energy   TEWEN  =    -30513.45027825
  -Hartree energ DENC   =    -10922.40982100
  -exchange      EXHF   =         0.00000000
  -V(xc)+E(xc)   XCENC  =      1259.14680590
  PAW double counting   =     36877.67365489   -36280.31523317
  entropy T*S    EENTRO =        -0.00000000
  eigenvalues    EBANDS =     -2402.99523152
  atomic energy  EATOM  =     40341.65184589
  Solvation  Ediel_sol  =         0.00000000
  ---------------------------------------------------
  free energy    TOTEN  =      -207.65142880 eV

  energy without entropy =     -207.65142880  energy(sigma->0) =     -207.65142880


--------------------------------------------------------------------------------------------------------




--------------------------------------- Iteration      1(  16)  ---------------------------------------


    POTLOK:  cpu time      0.1570: real time      0.1571
    SETDIJ:  cpu time      0.6658: real time      0.6662
     EDDAV:  cpu time     33.7265: real time     33.7419
       DOS:  cpu time      0.0021: real time      0.0022
    CHARGE:  cpu time      1.2911: real time      1.2925
    MIXING:  cpu time      0.0075: real time      0.0075
    --------------------------------------------
[...]
    168       5.2255      2.00000
    169       5.3016      2.00000
    170       5.3055      2.00000
    171       5.3111      2.00000
    172       5.3111      2.00000
    173       5.4801      2.00000
    174       5.4805      2.00000
    175       5.4867      2.00000
    176       5.4867      2.00000
    177       5.6990      2.00000
    178       5.6990      2.00000
    179       5.7027      2.00000
    180       5.7173      2.00000
    181       6.1367      2.00000
    182       6.1687      2.00000
    183       6.1687      2.00000
    184       6.1912      2.00000
    185       6.7603      2.00000
    186       6.7603      2.00000
    187       6.7956      2.00000
    188       6.8211      2.00000
    189       6.8891      2.00000
    190       6.8891      2.00000
    191       6.9097      2.00000
    192       6.9302      2.00000
    193       9.0382      0.00000
    194       9.0743      0.00000
    195       9.0743      0.00000
    196       9.1088      0.00000
    197       9.8511      0.00000
    198       9.8842      0.00000
    199       9.8842      0.00000
    200       9.9146      0.00000
    201      10.1885      0.00000
    202      10.1984      0.00000
    203      10.2184      0.00000
    204      10.2184      0.00000
    205      10.5220      0.00000
    206      10.5438      0.00000
    207      10.5659      0.00000
    208      10.5659      0.00000
    209      10.9610      0.00000
    210      10.9610      0.00000
    211      10.9956      0.00000
    212      11.0265      0.00000
    213      11.0574      0.00000
    214      11.0842      0.00000
    215      11.0842      0.00000
    216      11.1149      0.00000
    217      11.9814      0.00000
    218      11.9814      0.00000
    219      12.0025      0.00000
    220      12.0092      0.00000
    221      12.1333      0.00000
    222      12.1333      0.00000
    223      12.1343      0.00000
    224      12.1546      0.00000
    225      12.6222      0.00000
    226      12.6627      0.00000
    227      12.6627      0.00000
    228      12.6819      0.00000
    229      12.7139      0.00000
    230      12.7139      0.00000
    231      12.7960      0.00000
    232      12.8025      0.00000


--------------------------------------------------------------------------------------------------------


 soft charge-density along one line, spin component           1
         0         1         2         3         4         5         6         7         8         9
 total charge-density along one line
 
 pseudopotential strength for first ion, spin component:           1
-16.985   0.001   0.001   0.001   0.000   3.484  -0.000  -0.000
  0.001 -16.966   0.001  -0.001  -0.001  -0.000   3.476  -0.000
  0.001   0.001 -16.991   0.001   0.000  -0.000  -0.000   3.490
  0.001  -0.001   0.001 -16.966   0.001  -0.000   0.000  -0.000
  0.000  -0.001   0.000   0.001 -16.968  -0.000   0.000  -0.000
  3.484  -0.000  -0.000  -0.000  -0.000   6.027   0.000   0.000
 -0.000   3.476  -0.000   0.000   0.000   0.000   6.029   0.000
 -0.000  -0.000   3.490  -0.000  -0.000   0.000   0.000   6.028
 -0.000   0.000  -0.000   3.476  -0.000   0.000  -0.000   0.000
 -0.000   0.000  -0.000  -0.000   3.475  -0.000  -0.000   0.000
 -0.000   0.000   0.004   0.000   0.000   0.000  -0.000   0.003
  0.000  -0.000  -0.005  -0.000   0.000  -0.000   0.000  -0.004
  0.000  -0.018  -0.000  -0.000  -0.000   0.000   0.004   0.000
 -0.000   0.000  -0.021   0.000  -0.000  -0.000   0.000   0.003
  0.000  -0.000  -0.000  -0.018   0.000   0.000  -0.000   0.000
  0.000  -0.030  -0.000  -0.000  -0.000   0.000   0.003   0.000
 -0.000   0.000  -0.032   0.000  -0.000  -0.000   0.000   0.001
  0.000  -0.000  -0.000  -0.030   0.000   0.000  -0.000   0.000
 total augmentation occupancy for first ion, spin component:           1
  1.999   0.000   0.000   0.000   0.000  -0.003   0.000   0.000   0.000   0.000  -0.000  -0.000  -0.000  -0.000  -0.000   0.000
  0.000   1.999  -0.000  -0.000  -0.000   0.000  -0.004   0.000  -0.000  -0.000   0.000   0.000   0.037  -0.000  -0.000  -0.013
  0.000  -0.000   2.001  -0.000   0.000   0.000   0.000  -0.000   0.000   0.000   0.001   0.001   0.000   0.035   0.000  -0.000
  0.000  -0.000  -0.000   1.999   0.000   0.000  -0.000   0.000  -0.004   0.000   0.000   0.000  -0.000  -0.000   0.037   0.000
  0.000  -0.000   0.000   0.000   1.999   0.000  -0.000   0.000   0.000  -0.005   0.000   0.000   0.000   0.000  -0.000  -0.000
 -0.003   0.000   0.000   0.000   0.000   0.024   0.000   0.000   0.000   0.000  -0.001  -0.000   0.002  -0.002   0.002  -0.000
  0.000  -0.004   0.000  -0.000  -0.000   0.000   0.052   0.000  -0.001  -0.000   0.000   0.001  -0.082   0.000  -0.002   0.012
  0.000   0.000  -0.000   0.000   0.000   0.000   0.000   0.018   0.000   0.000   0.012  -0.004  -0.001   0.004  -0.001   0.000
  0.000  -0.000   0.000  -0.004   0.000   0.000  -0.001   0.000   0.052   0.000   0.000   0.001  -0.002   0.000  -0.082   0.000
  0.000  -0.000   0.000   0.000  -0.005   0.000  -0.000   0.000   0.000   0.056   0.000  -0.000   0.000   0.000  -0.000  -0.000
 -0.000   0.000   0.001   0.000   0.000  -0.001   0.000   0.012   0.000   0.000   2.046  -0.023  -0.001   0.178  -0.001  -0.000
 -0.000   0.000   0.001   0.000   0.000  -0.000   0.001  -0.004   0.001  -0.000  -0.023   0.033   0.001  -0.082   0.001  -0.000
 -0.000   0.037   0.000  -0.000   0.000   0.002  -0.082  -0.001  -0.002   0.000  -0.001   0.001   0.934   0.006  -0.007  -0.089
 -0.000  -0.000   0.035  -0.000   0.000  -0.002   0.000   0.004   0.000   0.000   0.178  -0.082   0.006   1.019   0.006  -0.001
 -0.000  -0.000   0.000   0.037  -0.000   0.002  -0.002  -0.001  -0.082  -0.000  -0.001   0.001  -0.007   0.006   0.934   0.001
  0.000  -0.013  -0.000   0.000  -0.000  -0.000   0.012   0.000   0.000  -0.000  -0.000  -0.000  -0.089  -0.001   0.001   0.011
  0.000   0.000  -0.020   0.000  -0.000   0.000   0.000   0.000   0.000   0.000  -0.012   0.008  -0.001  -0.093  -0.001   0.000
  0.000   0.000  -0.000  -0.013   0.000  -0.000   0.000   0.000   0.012   0.000  -0.000  -0.000   0.001  -0.001  -0.089  -0.000


------------------------ aborting loop because EDIFF is reached ----------------------------------------


    CHARGE:  cpu time      1.2934: real time      1.2942
    FORLOC:  cpu time      0.0158: real time      0.0158
    FORNL :  cpu time      5.8683: real time      5.8730
    STRESS:  cpu time     18.9193: real time     18.9221
    FORCOR:  cpu time      0.1611: real time      0.1612
    FORHAR:  cpu time      0.0536: real time      0.0536
    MIXING:  cpu time      0.0044: real time      0.0044
    OFIELD:  cpu time      0.0001: real time      0.0001

  FORCE on cell =-STRESS in cart. coord.  units (eV):
  Direction    XX          YY          ZZ          XY          YZ          ZX
  --------------------------------------------------------------------------------------
  Alpha Z  1433.04683  1433.04683  1433.04683
  Ewald   -8782.05916 -8782.05916-12949.44526     0.00000    -0.00000    -0.00000
  Hartree  4906.39639  4906.39639  1109.62417    -0.00000    -0.00000    -0.00000
  E(xc)   -1832.51822 -1832.51822 -1833.67546     0.00000    -0.00000     0.00000
  Local   -4442.47789 -4442.47789  3536.21614    -0.00000    -0.00000     0.00000
  n-local  1592.21042  1597.97183  1606.35072     0.69697    -0.06011     0.13973
  augment  2176.54955  2176.54955  2160.35809    -0.00000     0.00000     0.00000
  Kinetic  4976.08113  4984.17361  4963.94698    -4.06284     0.46825    -0.62738
  Fock        0.00000     0.00000     0.00000     0.00000     0.00000     0.00000
  -------------------------------------------------------------------------------------
  Total      34.15600    34.15600    26.42222     0.00000     0.00000    -0.00000
  in kB      77.63354    77.63354    60.05536     0.00000     0.00000    -0.00000
  external pressure =       71.77 kB  Pullay stress =        0.00 kB


 VOLUME and BASIS-vectors are now :
 -----------------------------------------------------------------------------
  energy-cutoff  :      520.00
  volume of cell :      704.90
      direct lattice vectors                 reciprocal lattice vectors
     7.644155072  0.000000000  0.000000000     0.130818905  0.000000000  0.000000000
     0.000000000  7.644155072  0.000000000     0.000000000  0.130818905  0.000000000
     0.000000000  0.000000000 12.063384261     0.000000000  0.000000000  0.082895478

  length of vectors
     7.644155072  7.644155072 12.063384261     0.130818905  0.130818905  0.082895478


 FORCES acting on ions
    electron-ion (+dipol)            ewald-force                    non-local-force                 convergence-correction
 -----------------------------------------------------------------------------------------------
   -.722E+01 -.722E+01 -.423E+03   0.708E+01 0.708E+01 0.434E+03   0.136E+00 0.136E+00 -.115E+02   -.432E-06 -.432E-06 -.114E-05
   0.722E+01 -.722E+01 -.423E+03   -.708E+01 0.708E+01 0.434E+03   -.136E+00 0.136E+00 -.115E+02   0.432E-06 -.432E-06 -.114E-05
   -.722E+01 0.722E+01 -.423E+03   0.708E+01 -.708E+01 0.434E+03   0.136E+00 -.136E+00 -.115E+02   -.432E-06 0.432E-06 -.114E-05
   0.722E+01 0.722E+01 -.423E+03   -.708E+01 -.708E+01 0.434E+03   -.136E+00 -.136E+00 -.115E+02   0.432E-06 0.432E-06 -.114E-05
   -.686E-13 -.131E-11 0.455E+03   -.284E-13 -.853E-13 -.467E+03   -.486E-18 -.121E-17 0.114E+02   -.525E-11 0.866E-12 -.991E-06
   0.724E-12 -.410E-11 0.453E+03   0.142E-12 -.411E-13 -.464E+03   0.352E-18 0.107E-17 0.113E+02   0.503E-11 -.283E-11 -.134E-05
   -.476E-13 -.159E-11 0.453E+03   -.114E-12 0.853E-13 -.464E+03   -.595E-18 0.345E-18 0.113E+02   -.201E-11 -.742E-12 -.134E-05
   0.765E-12 0.130E-11 0.452E+03   0.568E-13 0.264E-13 -.464E+03   0.772E-18 -.345E-19 0.113E+02   0.175E-11 -.185E-11 -.151E-05
   -.280E-13 0.131E-11 -.455E+03   -.114E-12 0.284E-13 0.467E+03   -.117E-17 -.360E-18 -.114E+02   0.259E-11 0.111E-11 0.991E-06
   0.771E-12 0.411E-11 -.453E+03   0.568E-13 -.176E-13 0.464E+03   -.606E-18 0.946E-18 -.113E+02   -.261E-11 0.605E-12 0.134E-05
   -.113E-12 0.280E-11 -.453E+03   -.199E-12 0.284E-13 0.464E+03   0.323E-18 0.396E-18 -.113E+02   -.378E-11 -.170E-11 0.134E-05
   0.711E-12 0.371E-11 -.452E+03   0.142E-12 0.955E-14 0.464E+03   -.781E-18 -.113E-18 -.113E+02   0.357E-11 -.142E-11 0.151E-05
   -.722E+01 -.722E+01 0.423E+03   0.708E+01 0.708E+01 -.434E+03   0.136E+00 0.136E+00 0.115E+02   -.432E-06 -.432E-06 0.114E-05
   0.722E+01 -.722E+01 0.423E+03   -.708E+01 0.708E+01 -.434E+03   -.136E+00 0.136E+00 0.115E+02   0.432E-06 -.432E-06 0.114E-05
   -.722E+01 0.722E+01 0.423E+03   0.708E+01 -.708E+01 -.434E+03   0.136E+00 -.136E+00 0.115E+02   -.432E-06 0.432E-06 0.114E-05
   0.722E+01 0.722E+01 0.423E+03   -.708E+01 -.708E+01 -.434E+03   -.136E+00 -.136E+00 0.115E+02   0.432E-06 0.432E-06 0.114E-05
   0.401E-13 0.140E-13 -.843E-12   -.284E-13 -.284E-13 0.329E-11   0.130E-26 0.165E-27 -.120E-26   0.163E-12 0.712E-12 0.230E-11
   -.243E-13 0.232E-13 -.122E-11   -.568E-13 -.284E-13 0.330E-11   -.260E-27 0.177E-26 -.386E-27   0.149E-11 -.277E-12 0.721E-13
   0.399E-13 -.491E-12 -.153E-11   0.284E-13 0.711E-13 0.747E-11   -.299E-27 0.473E-27 0.509E-27   -.149E-11 -.432E-12 0.347E-12
   -.211E+01 -.211E+01 -.965E-07   0.212E+01 0.212E+01 -.955E-12   -.100E-01 -.100E-01 0.391E-20   -.699E-06 -.699E-06 -.839E-12
   0.211E+01 -.211E+01 -.564E-11   -.212E+01 0.212E+01 -.976E-12   0.100E-01 -.100E-01 0.100E-19   0.699E-06 -.699E-06 -.560E-12
   -.211E+01 0.211E+01 0.397E-13   0.212E+01 -.212E+01 -.976E-12   -.100E-01 0.100E-01 -.226E-20   -.699E-06 0.699E-06 -.450E-12
   0.211E+01 0.211E+01 0.965E-07   -.212E+01 -.212E+01 -.102E-11   0.100E-01 0.100E-01 0.253E-20   0.699E-06 0.699E-06 -.707E-12
   -.481E-14 -.281E+01 0.914E+01   -.711E-13 0.282E+01 -.929E+01   -.376E-18 -.162E-01 0.148E+00   -.811E-12 -.178E-05 -.152E-05
   0.230E-12 -.222E+01 0.360E+01   0.000E+00 0.222E+01 -.346E+01   -.230E-18 -.566E-02 -.141E+00   0.762E-12 -.740E-06 -.138E-05
   0.186E-13 0.281E+01 0.914E+01   -.568E-13 -.282E+01 -.929E+01   0.721E-19 0.162E-01 0.148E+00   -.585E-12 0.178E-05 -.152E-05
   0.220E-12 0.222E+01 0.360E+01   0.142E-13 -.222E+01 -.346E+01   0.225E-19 0.566E-02 -.141E+00   0.537E-12 0.740E-06 -.138E-05
   -.281E+01 0.186E-11 0.914E+01   0.282E+01 -.284E-13 -.929E+01   -.162E-01 0.321E-18 0.148E+00   -.178E-05 -.551E-13 -.152E-05
   0.281E+01 0.158E-11 0.914E+01   -.282E+01 -.711E-13 -.929E+01   0.162E-01 -.185E-18 0.148E+00   0.178E-05 0.150E-11 -.152E-05
   -.222E+01 0.372E-11 0.360E+01   0.222E+01 0.142E-13 -.346E+01   -.566E-02 0.227E-19 -.141E+00   -.740E-06 -.186E-12 -.138E-05
   0.222E+01 0.221E-12 0.360E+01   -.222E+01 0.711E-13 -.346E+01   0.566E-02 -.298E-19 -.141E+00   0.740E-06 0.803E-12 -.138E-05
   -.281E+01 -.161E-11 -.914E+01   0.282E+01 -.711E-14 0.929E+01   -.162E-01 0.149E-18 -.148E+00   -.178E-05 0.740E-12 0.152E-05
   0.281E+01 -.193E-11 -.914E+01   -.282E+01 -.284E-13 0.929E+01   0.162E-01 -.150E-18 -.148E+00   0.178E-05 0.333E-12 0.152E-05
   -.222E+01 0.140E-11 -.360E+01   0.222E+01 -.568E-13 0.346E+01   -.566E-02 0.220E-19 0.141E+00   -.740E-06 -.912E-12 0.138E-05
   0.222E+01 -.443E-11 -.360E+01   -.222E+01 -.142E-13 0.346E+01   0.566E-02 -.638E-20 0.141E+00   0.740E-06 -.215E-11 0.138E-05
   -.750E-13 -.281E+01 -.914E+01   -.142E-13 0.282E+01 0.929E+01   -.714E-20 -.162E-01 -.148E+00   0.196E-11 -.178E-05 0.152E-05
   0.274E-12 -.222E+01 -.360E+01   0.284E-13 0.222E+01 0.346E+01   0.449E-18 -.566E-02 0.141E+00   -.204E-11 -.740E-06 0.138E-05
   -.688E-13 0.281E+01 -.914E+01   -.114E-12 -.282E+01 0.929E+01   -.222E-18 0.162E-01 -.148E+00   0.268E-11 0.178E-05 0.152E-05
   0.280E-12 0.222E+01 -.360E+01   0.426E-13 -.222E+01 0.346E+01   0.242E-18 0.566E-02 0.141E+00   -.275E-11 0.740E-06 0.138E-05
   -.212E-13 -.151E-13 -.183E-11   0.568E-13 -.711E-13 0.224E-11   -.158E-26 0.424E-26 0.377E-26   -.210E-12 0.300E-12 0.197E-11
 -----------------------------------------------------------------------------------------------
   0.125E-10 0.308E-10 -.117E-09   -.142E-13 -.711E-13 -.107E-13   0.247E-16 -.226E-16 -.547E-14   -.617E-12 -.858E-11 -.201E-10
 
 
 POSITION                                       TOTAL-FORCE (eV/Angst)
 -----------------------------------------------------------------------------------
      1.90131      1.90131     10.34738         0.000002      0.000002     -0.000003
      5.74284      1.90131     10.34738        -0.000002      0.000002     -0.000003
      1.90131      5.74284     10.34738         0.000002     -0.000002     -0.000003
      5.74284      5.74284     10.34738        -0.000002     -0.000002     -0.000003
      0.00000      0.00000      7.75809        -0.000000     -0.000000     -0.000003
      3.82208      0.00000      7.76883         0.000000      0.000000     -0.000003
      0.00000      3.82208      7.76883        -0.000000      0.000000     -0.000003
      3.82208      3.82208      7.78055        -0.000000     -0.000000     -0.000003
      0.00000      0.00000      4.30530        -0.000000     -0.000000      0.000003
      3.82208      0.00000      4.29456        -0.000000      0.000000      0.000003
      0.00000      3.82208      4.29456         0.000000      0.000000      0.000003
      3.82208      3.82208      4.28283         0.000000     -0.000000      0.000003
      1.90131      1.90131      1.71601         0.000002      0.000002      0.000003
      5.74284      1.90131      1.71601        -0.000002      0.000002      0.000003
      1.90131      5.74284      1.71601         0.000002     -0.000002      0.000003
      5.74284      5.74284      1.71601        -0.000002     -0.000002      0.000003
      3.82208      0.00000      0.00000         0.000000      0.000000      0.000000
      0.00000      3.82208      0.00000         0.000000     -0.000000      0.000000
      3.82208      3.82208      0.00000        -0.000000     -0.000000      0.000000
      1.91437      1.91437      6.03169         0.000001      0.000001      0.000000
      5.72979      1.91437      6.03169        -0.000001      0.000001      0.000000
      1.91437      5.72979      6.03169         0.000001     -0.000001      0.000000
      5.72979      5.72979      6.03169        -0.000001     -0.000001      0.000000
      0.00000      1.90653      9.05085         0.000000     -0.000001      0.000007
      3.82208      1.90754      9.06620        -0.000000     -0.000001      0.000009
      0.00000      5.73763      9.05085        -0.000000      0.000001      0.000007
      3.82208      5.73661      9.06620         0.000000      0.000001      0.000009
      1.90653      0.00000      9.05085        -0.000001      0.000000      0.000007
      5.73763      0.00000      9.05085         0.000001     -0.000000      0.000007
      1.90754      3.82208      9.06620        -0.000001     -0.000000      0.000009
      5.73661      3.82208      9.06620         0.000001     -0.000000      0.000009
      1.90653      0.00000      3.01254        -0.000001      0.000000     -0.000007
      5.73763      0.00000      3.01254         0.000001      0.000000     -0.000007
      1.90754      3.82208      2.99719        -0.000001     -0.000000     -0.000009
      5.73661      3.82208      2.99719         0.000001      0.000000     -0.000009
      0.00000      1.90653      3.01254        -0.000000     -0.000001     -0.000007
      3.82208      1.90754      2.99719         0.000000     -0.000001     -0.000009
      0.00000      5.73763      3.01254        -0.000000      0.000001     -0.000007
      3.82208      5.73661      2.99719         0.000000      0.000001     -0.000009
      0.00000      0.00000      0.00000         0.000000     -0.000000      0.000000
 -----------------------------------------------------------------------------------
    total drift:                                0.000000      0.000000     -0.000000


--------------------------------------------------------------------------------------------------------



  FREE ENERGIE OF THE ION-ELECTRON SYSTEM (eV)
  ---------------------------------------------------
  free  energy   TOTEN  =      -207.65142760 eV

  energy  without entropy=     -207.65142760  energy(sigma->0) =     -207.65142760
 
 d Force = 0.1922244E-10[ 0.160E-11, 0.368E-10]  d Energy = 0.1064109E-09-0.872E-10
 d Force =-0.4053825E-03[-0.405E-03,-0.405E-03]  d Ewald  =-0.4053824E-03-0.255E-10


--------------------------------------------------------------------------------------------------------


    POTLOK:  cpu time      0.8191: real time      0.8205


--------------------------------------------------------------------------------------------------------




--------------------------------------------------------------------------------------------------------


  
 reached required accuracy - stopping structural energy minimisation
     LOOP+:  cpu time    139.3269: real time    139.4573
    4ORBIT:  cpu time      0.0000: real time      0.0000

 total amount of memory used by VASP MPI-rank0    90372. kBytes
=======================================================================

   base      :      30000. kBytes
   nonl-proj :      15980. kBytes
   fftplans  :      12201. kBytes
   grid      :       7793. kBytes
   one-center:         77. kBytes
   wavefun   :      24321. kBytes
 
  
  
 General timing and accounting informations for this job:
 ========================================================
  
                  Total CPU time used (sec):     1952.770
                            User time (sec):     1947.809
                          System time (sec):        4.961
                         Elapsed time (sec):     1953.420
  
                   Maximum memory used (kb):      187192.
                   Average memory used (kb):          N/A
  
                          Minor page faults:        34341
                          Major page faults:            6
                 Voluntary context switches:          213
