<?xml version="1.0" encoding="ISO-8859-1"?>
<modeling>
 <generator>
  <i name="program" type="string">vasp </i>
  <i name="version" type="string">6.4.3  </i>
  <i name="subversion" type="string">19Mar24 (build Apr 09 2025 20:43:19) complex                          parallel </i>
  <i name="platform" type="string">LinuxIFC </i>
  <i name="date" type="string">2025 04 13 </i>
  <i name="time" type="string">03:43:41 </i>
 </generator>
 <incar>
  <i type="string" name="PREC">Accurate</i>
  <i type="int" name="IALGO">    38</i>
  <i type="logical" name="ADDGRID"> T  </i>
  <i type="int" name="NELMIN">     5</i>
  <i type="int" name="IBRION">     2</i>
  <i name="EDIFF">      0.00000001</i>
  <i name="EDIFFG">     -0.00001000</i>
  <i type="int" name="NSW">   100</i>
  <i type="int" name="ISIF">     2</i>
  <i name="ENCUT">    520.00000000</i>
  <i type="logical" name="LREAL"> F  </i>
  <i type="int" name="ISMEAR">     0</i>
  <i name="SIGMA">      0.05000000</i>
  <i type="logical" name="LWAVE"> F  </i>
  <i type="logical" name="LCHARG"> F  </i>
 </incar>
 <primitive_cell>
  <structure name="primitive_cell" >
   <crystal>
    <varray name="basis" >
     <v>       7.64415507       0.00000000       0.00000000 </v>
     <v>       0.00000000       7.64415507       0.00000000 </v>
     <v>       0.00000000       0.00000000      12.06338426 </v>
    </varray>
    <i name="volume">    704.90102057 </i>
    <varray name="rec_basis" >
     <v>       0.13081891       0.00000000       0.00000000 </v>
     <v>       0.00000000       0.13081891       0.00000000 </v>
     <v>       0.00000000       0.00000000       0.08289548 </v>
    </varray>
   </crystal>
   <varray name="positions" >
    <v>       0.24872761       0.24872761       0.85775074 </v>
    <v>       0.75127239       0.24872761       0.85775074 </v>
    <v>       0.24872761       0.75127239       0.85775074 </v>
    <v>       0.75127239       0.75127239       0.85775074 </v>
    <v>       0.00000000       0.00000000       0.64311026 </v>
    <v>       0.50000000       0.00000000       0.64400048 </v>
    <v>       0.00000000       0.50000000       0.64400048 </v>
    <v>       0.50000000       0.50000000       0.64497248 </v>
    <v>       0.00000000       0.00000000       0.35688974 </v>
    <v>       0.50000000       0.00000000       0.35599952 </v>
    <v>       0.00000000       0.50000000       0.35599952 </v>
    <v>       0.50000000       0.50000000       0.35502752 </v>
    <v>       0.24872761       0.24872761       0.14224926 </v>
    <v>       0.75127239       0.24872761       0.14224926 </v>
    <v>       0.24872761       0.75127239       0.14224926 </v>
    <v>       0.75127239       0.75127239       0.14224926 </v>
    <v>       0.50000000       0.00000000       0.00000000 </v>
    <v>       0.00000000       0.50000000       0.00000000 </v>
    <v>       0.50000000       0.50000000       0.00000000 </v>
    <v>       0.25043556       0.25043556       0.50000000 </v>
    <v>       0.74956444       0.25043556       0.50000000 </v>
    <v>       0.25043556       0.74956444       0.50000000 </v>
    <v>       0.74956444       0.74956444       0.50000000 </v>
    <v>       0.00000000       0.24940968       0.75027413 </v>
    <v>       0.50000000       0.24954250       0.75154683 </v>
    <v>       0.00000000       0.75059032       0.75027413 </v>
    <v>       0.50000000       0.75045750       0.75154683 </v>
    <v>       0.24940968       0.00000000       0.75027413 </v>
    <v>       0.75059032       0.00000000       0.75027413 </v>
    <v>       0.24954250       0.50000000       0.75154683 </v>
    <v>       0.75045750       0.50000000       0.75154683 </v>
    <v>       0.24940968       0.00000000       0.24972587 </v>
    <v>       0.75059032       0.00000000       0.24972587 </v>
    <v>       0.24954250       0.50000000       0.24845317 </v>
    <v>       0.75045750       0.50000000       0.24845317 </v>
    <v>       0.00000000       0.24940968       0.24972587 </v>
    <v>       0.50000000       0.24954250       0.24845317 </v>
    <v>       0.00000000       0.75059032       0.24972587 </v>
    <v>       0.50000000       0.75045750       0.24845317 </v>
    <v>       0.00000000       0.00000000       0.00000000 </v>
   </varray>
  </structure>
  <varray name="primitive_index" >
   <v type="int" >        1 </v>
   <v type="int" >        2 </v>
   <v type="int" >        3 </v>
   <v type="int" >        4 </v>
   <v type="int" >        5 </v>
   <v type="int" >        6 </v>
   <v type="int" >        7 </v>
   <v type="int" >        8 </v>
   <v type="int" >        9 </v>
   <v type="int" >       10 </v>
   <v type="int" >       11 </v>
   <v type="int" >       12 </v>
   <v type="int" >       13 </v>
   <v type="int" >       14 </v>
   <v type="int" >       15 </v>
   <v type="int" >       16 </v>
   <v type="int" >       17 </v>
   <v type="int" >       18 </v>
   <v type="int" >       19 </v>
   <v type="int" >       20 </v>
   <v type="int" >       21 </v>
   <v type="int" >       22 </v>
   <v type="int" >       23 </v>
   <v type="int" >       24 </v>
   <v type="int" >       25 </v>
   <v type="int" >       26 </v>
   <v type="int" >       27 </v>
   <v type="int" >       28 </v>
   <v type="int" >       29 </v>
   <v type="int" >       30 </v>
   <v type="int" >       31 </v>
   <v type="int" >       32 </v>
   <v type="int" >       33 </v>
   <v type="int" >       34 </v>
   <v type="int" >       35 </v>
   <v type="int" >       36 </v>
   <v type="int" >       37 </v>
   <v type="int" >       38 </v>
   <v type="int" >       39 </v>
   <v type="int" >       40 </v>
  </varray>
 </primitive_cell>
 <kpoints>
  <generation param="Gamma">
   <v type="int" name="divisions">       4        4        3 </v>
   <v name="usershift">      0.00000000       0.00000000       0.00000000 </v>
   <v name="genvec1">      0.25000000       0.00000000       0.00000000 </v>
   <v name="genvec2">      0.00000000       0.25000000       0.00000000 </v>
   <v name="genvec3">      0.00000000       0.00000000       0.33333333 </v>
   <v name="shift">      0.00000000       0.00000000       0.00000000 </v>
  </generation>
  <varray name="kpointlist" >
   <v>       0.00000000       0.00000000       0.00000000 </v>
   <v>       0.25000000       0.00000000       0.00000000 </v>
   <v>       0.50000000       0.00000000       0.00000000 </v>
   <v>       0.25000000       0.25000000       0.00000000 </v>
   <v>       0.50000000       0.25000000       0.00000000 </v>
   <v>       0.50000000       0.50000000       0.00000000 </v>
   <v>       0.00000000       0.00000000       0.33333333 </v>
   <v>       0.25000000       0.00000000       0.33333333 </v>
   <v>       0.50000000       0.00000000       0.33333333 </v>
   <v>       0.25000000       0.25000000       0.33333333 </v>
   <v>       0.50000000       0.25000000       0.33333333 </v>
   <v>       0.50000000       0.50000000       0.33333333 </v>
  </varray>
  <varray name="weights" >
   <v>       0.02083333 </v>
   <v>       0.08333333 </v>
   <v>       0.04166667 </v>
   <v>       0.08333333 </v>
   <v>       0.08333333 </v>
   <v>       0.02083333 </v>
   <v>       0.04166667 </v>
   <v>       0.16666667 </v>
   <v>       0.08333333 </v>
   <v>       0.16666667 </v>
   <v>       0.16666667 </v>
   <v>       0.04166667 </v>
  </varray>
 </kpoints>
 <parameters>
  <separator name="general" >
   <i type="string" name="SYSTEM">unknown system</i>
   <i type="logical" name="LCOMPAT"> F  </i>
  </separator>
  <separator name="electronic" >
   <i type="string" name="PREC">accura</i>
   <i name="ENMAX">    520.00000000</i>
   <i name="ENAUG">    605.39200000</i>
   <i name="EDIFF">      0.00000001</i>
   <i type="int" name="IALGO">    38</i>
   <i type="int" name="IWAVPR">    11</i>
   <i type="int" name="NBANDS">   232</i>
   <i type="int" name="NBANDSLOW">    -1</i>
   <i type="int" name="NBANDSHIGH">    -1</i>
   <i name="NELECT">    384.00000000</i>
   <i type="int" name="TURBO">     0</i>
   <i type="int" name="IRESTART">     0</i>
   <i type="int" name="NREBOOT">     0</i>
   <i type="int" name="NMIN">     0</i>
   <i name="EREF">      0.00000000</i>
   <separator name="electronic smearing" >
    <i type="int" name="ISMEAR">     0</i>
    <i name="SIGMA">      0.05000000</i>
    <i name="KSPACING">      0.50000000</i>
    <i type="logical" name="KGAMMA"> T  </i>
    <i type="logical" name="KBLOWUP"> T  </i>
   </separator>
   <separator name="electronic projectors" >
    <i type="logical" name="LREAL"> F  </i>
    <v name="ROPT">      0.00000000      0.00000000      0.00000000      0.00000000</v>
    <i type="int" name="LMAXPAW">  -100</i>
    <i type="int" name="LMAXMIX">     2</i>
    <i type="logical" name="NLSPLINE"> F  </i>
   </separator>
   <separator name="electronic startup" >
    <i type="int" name="ISTART">     0</i>
    <i type="int" name="ICHARG">     2</i>
    <i type="int" name="INIWAV">     1</i>
   </separator>
   <separator name="electronic spin" >
    <i type="int" name="ISPIN">     1</i>
    <i type="logical" name="LNONCOLLINEAR"> F  </i>
    <v name="MAGMOM">      1.00000000      1.00000000      1.00000000      1.00000000      1.00000000      1.00000000      1.00000000      1.00000000      1.00000000      1.00000000      1.00000000      1.00000000      1.00000000      1.00000000      1.00000000      1.00000000      1.00000000      1.00000000      1.00000000      1.00000000
      1.00000000      1.00000000      1.00000000      1.00000000      1.00000000      1.00000000      1.00000000      1.00000000      1.00000000      1.00000000      1.00000000      1.00000000      1.00000000      1.00000000      1.00000000      1.00000000      1.00000000      1.00000000      1.00000000      1.00000000
</v>
    <i name="NUPDOWN">     -1.00000000</i>
    <i type="logical" name="LSORBIT"> F  </i>
    <v name="SAXIS">      0.00000000      0.00000000      1.00000000</v>
    <i type="logical" name="LSPIRAL"> F  </i>
    <v name="QSPIRAL">      0.00000000      0.00000000      0.00000000</v>
    <i type="logical" name="LZEROZ"> F  </i>
   </separator>
   <separator name="electronic exchange-correlation" >
    <i type="logical" name="LASPH"> F  </i>
   </separator>
   <separator name="electronic convergence" >
    <i type="int" name="NELM">    60</i>
    <i type="int" name="NELMDL">    -5</i>
    <i type="int" name="NELMIN">     5</i>
    <i name="ENINI">    520.00000000</i>
    <separator name="electronic convergence detail" >
     <i type="logical" name="LDIAG"> T  </i>
     <i type="logical" name="LSUBROT"> F  </i>
     <i name="WEIMIN">      0.00100000</i>
     <i name="EBREAK">      0.00000000</i>
     <i name="DEPER">      0.30000000</i>
     <i type="int" name="NRMM">     4</i>
     <i name="TIME">      0.40000000</i>
    </separator>
   </separator>
   <separator name="electronic mixer" >
    <i name="AMIX">      0.40000000</i>
    <i name="BMIX">      1.00000000</i>
    <i name="AMIN">      0.10000000</i>
    <i name="AMIX_MAG">      1.60000000</i>
    <i name="BMIX_MAG">      1.00000000</i>
    <separator name="electronic mixer details" >
     <i type="int" name="IMIX">     4</i>
     <i type="logical" name="MIXFIRST"> F  </i>
     <i type="int" name="MAXMIX">   -45</i>
     <i name="WC">    100.00000000</i>
     <i type="int" name="INIMIX">     1</i>
     <i type="int" name="MIXPRE">     1</i>
     <i type="int" name="MREMOVE">     5</i>
    </separator>
   </separator>
   <separator name="electronic dipolcorrection" >
    <i type="logical" name="LDIPOL"> F  </i>
    <i type="logical" name="LMONO"> F  </i>
    <i type="int" name="IDIPOL">     0</i>
    <i name="EPSILON">      1.00000000</i>
    <v name="DIPOL">   -100.00000000   -100.00000000   -100.00000000</v>
    <i name="EFIELD">      0.00000000</i>
    <i type="logical" name="LVACPOTAV"> F  </i>
   </separator>
  </separator>
  <separator name="grids" >
   <i type="int" name="NGX">    60</i>
   <i type="int" name="NGY">    60</i>
   <i type="int" name="NGZ">    90</i>
   <i type="int" name="NGXF">   120</i>
   <i type="int" name="NGYF">   120</i>
   <i type="int" name="NGZF">   180</i>
   <i type="logical" name="ADDGRID"> T  </i>
  </separator>
  <separator name="ionic" >
   <i type="int" name="NSW">   100</i>
   <i type="int" name="IBRION">     2</i>
   <i type="int" name="MDALGO">     0</i>
   <i type="int" name="ISIF">     2</i>
   <i name="PSTRESS">      0.00000000</i>
   <i name="EDIFFG">     -0.00001000</i>
   <i type="int" name="NFREE">     1</i>
   <i name="POTIM">      0.50000000</i>
   <i name="SMASS">     -3.00000000</i>
   <i name="SCALEE">      1.00000000</i>
  </separator>
  <separator name="ionic md" >
   <i name="TEBEG">      0.00010000</i>
   <i name="TEEND">      0.00010000</i>
   <i type="int" name="NBLOCK">     1</i>
   <i type="int" name="KBLOCK">   100</i>
   <i type="int" name="NPACO">   256</i>
   <i name="APACO">     10.00000000</i>
  </separator>
  <separator name="symmetry" >
   <i type="int" name="ISYM">     2</i>
   <i name="SYMPREC">      0.00001000</i>
  </separator>
  <separator name="dos" >
   <i type="int" name="LORBIT">     0</i>
   <v name="RWIGS">     -1.00000000     -1.00000000     -1.00000000     -1.00000000</v>
   <i type="int" name="NEDOS">   301</i>
   <i name="EMIN">     10.00000000</i>
   <i name="EMAX">    -10.00000000</i>
   <i name="EFERMI">      0.00000000</i>
  </separator>
  <separator name="writing" >
   <i type="int" name="NWRITE">     2</i>
   <i type="logical" name="LWAVE"> F  </i>
   <i type="logical" name="LDOWNSAMPLE"> F  </i>
   <i type="logical" name="LCHARG"> F  </i>
   <i type="logical" name="LPARD"> F  </i>
   <i type="logical" name="LVTOT"> F  </i>
   <i type="logical" name="LVHAR"> F  </i>
   <i type="logical" name="LELF"> F  </i>
   <i type="logical" name="LOPTICS"> F  </i>
   <v name="STM">      0.00000000      0.00000000      0.00000000      0.00000000      0.00000000      0.00000000      0.00000000</v>
  </separator>
  <separator name="performance" >
   <i type="int" name="NPAR">     4</i>
   <i type="int" name="NSIM">     4</i>
   <i type="int" name="NBLK">    -1</i>
   <i type="logical" name="LPLANE"> T  </i>
   <i type="logical" name="LSCALAPACK"> T  </i>
   <i type="logical" name="LSCAAWARE"> F  </i>
   <i type="logical" name="LSCALU"> F  </i>
   <i type="logical" name="LASYNC"> F  </i>
   <i type="logical" name="LORBITALREAL"> F  </i>
  </separator>
  <separator name="miscellaneous" >
   <i type="int" name="IDIOT">     3</i>
   <i type="int" name="PHON_NSTRUCT">    -1</i>
   <i type="logical" name="LMUSIC"> F  </i>
   <v name="POMASS">    208.98000000     78.96000000     16.00000000     32.06600000</v>
   <v name="DARWINR">      0.00000000      0.00000000      0.00000000      0.00000000</v>
   <v name="DARWINV">      1.00000000      1.00000000      1.00000000      1.00000000</v>
   <i type="logical" name="LCORR"> T  </i>
  </separator>
  <i type="logical" name="GGA_COMPAT"> T  </i>
  <i type="logical" name="LBERRY"> F  </i>
  <i type="int" name="ICORELEVEL">     0</i>
  <i type="logical" name="LDAU"> F  </i>
  <i type="int" name="I_CONSTRAINED_M">     0</i>
  <separator name="electronic exchange-correlation" >
   <i type="string" name="GGA    ">PE</i>
   <i type="string" name="XC_C">1</i>
   <i type="int" name="VOSKOWN">     0</i>
   <i type="logical" name="LHFCALC"> F  </i>
   <i type="string" name="PRECFOCK"></i>
   <i type="logical" name="LSYMGRAD"> F  </i>
   <i type="logical" name="LHFONE"> F  </i>
   <i type="logical" name="LRHFCALC"> F  </i>
   <i type="logical" name="LTHOMAS"> F  </i>
   <i type="logical" name="LMODELHF"> F  </i>
   <i type="logical" name="LFOCKACE"> F  </i>
   <i name="ENCUT4O">     -1.00000000</i>
   <i type="int" name="EXXOEP">     0</i>
   <i type="int" name="FOURORBIT">     0</i>
   <i name="AEXX">      0.00000000</i>
   <i name="HFALPHA">      0.00000000</i>
   <i name="MCALPHA">      0.00000000</i>
   <i name="ALDAX">      1.00000000</i>
   <i name="AGGAX">      1.00000000</i>
   <i name="AMGGAX">      1.00000000</i>
   <i name="ALDAC">      1.00000000</i>
   <i name="AGGAC">      1.00000000</i>
   <i name="AMGGAC">      1.00000000</i>
   <i type="int" name="NKREDX">     1</i>
   <i type="int" name="NKREDY">     1</i>
   <i type="int" name="NKREDZ">     1</i>
   <i type="logical" name="SHIFTRED"> F  </i>
   <i type="logical" name="ODDONLY"> F  </i>
   <i type="logical" name="EVENONLY"> F  </i>
   <i type="int" name="LMAXFOCK">     0</i>
   <i type="int" name="NMAXFOCKAE">     0</i>
   <i type="logical" name="LFOCKAEDFT"> F  </i>
   <i name="HFSCREEN">      0.00000000</i>
   <i name="HFSCREENC">      0.00000000</i>
   <i type="int" name="NBANDSGWLOW">     0</i>
  </separator>
  <separator name="vdW DFT" >
   <i type="logical" name="LUSE_VDW"> F  </i>
   <i type="int" name="IVDW_NL">    -1</i>
   <i type="logical" name="LSPIN_VDW"> F  </i>
   <i name="ZAB_VDW">     -0.84910000</i>
   <i name="GAMMA_VDW">      1.39626340</i>
   <i name="ALPHA_VDW">      0.00000000</i>
   <i name="PARAM1">      0.12340000</i>
   <i name="PARAM2">      1.00000000</i>
   <i name="BPARAM">      6.30000000</i>
   <i name="CPARAM">      0.00930000</i>
  </separator>
  <separator name="model GW" >
   <i type="int" name="MODEL_GW">     0</i>
   <i name="MODEL_EPS0">     10.57351531</i>
   <i name="MODEL_ALPHA">      1.00000000</i>
  </separator>
  <separator name="linear response parameters" >
   <i type="logical" name="LEPSILON"> F  </i>
   <i type="logical" name="LRPA"> F  </i>
   <i type="logical" name="LNABLA"> F  </i>
   <i type="logical" name="LVEL"> F  </i>
   <i name="CSHIFT">      0.10000000</i>
   <i name="OMEGAMAX">     -1.00000000</i>
   <i name="DEG_THRESHOLD">      0.00200000</i>
   <i name="RTIME">     -0.10000000</i>
   <i name="WPLASMAI">      0.00000000</i>
   <v name="DFIELD">      0.00000000      0.00000000      0.00000000</v>
   <v name="WPLASMA">      0.00000000      0.00000000      0.00000000      0.00000000      0.00000000      0.00000000      0.00000000      0.00000000      0.00000000</v>
  </separator>
  <separator name="orbital magnetization" >
   <i type="logical" name="NUCIND"> F  </i>
   <v name="MAGPOS">      0.00000000      0.00000000      0.00000000</v>
   <i type="logical" name="LNICSALL"> T  </i>
   <i type="logical" name="ORBITALMAG"> F  </i>
   <i type="logical" name="LMAGBLOCH"> F  </i>
   <i type="logical" name="LCHIMAG"> F  </i>
   <i type="logical" name="LGAUGE"> T  </i>
   <i type="int" name="MAGATOM">     0</i>
   <v name="MAGDIPOL">      0.00000000      0.00000000      0.00000000</v>
   <v name="AVECCONST">      0.00000000      0.00000000      0.00000000</v>
  </separator>
  <separator name="response functions" >
   <i type="logical" name="LALL_IN_ONE"> F  </i>
   <i type="int" name="IALL_IN_ONE">    -1</i>
   <i type="int" name="NBANDS_WAVE">    -1</i>
   <i type="logical" name="LFINITE_TEMPERATURE"> F  </i>
   <i type="logical" name="LADDER"> F  </i>
   <i type="logical" name="LRPAFORCE"> F  </i>
   <i type="logical" name="LFXC"> F  </i>
   <i type="logical" name="LHARTREE"> T  </i>
   <i type="int" name="IBSE">     0</i>
   <v type="int" name="KPOINT">    -1     0     0     0</v>
   <i type="logical" name="LTCTC"> F  </i>
   <i type="logical" name="LTCTE"> F  </i>
   <i type="logical" name="LTETE"> F  </i>
   <i type="logical" name="LTRIPLET"> F  </i>
   <i type="logical" name="LFXCEPS"> F  </i>
   <i type="logical" name="LFXHEG"> F  </i>
   <i type="int" name="NATURALO">     2</i>
   <i type="logical" name="LHOLEGF"> F  </i>
   <i type="logical" name="L2ORDER"> F  </i>
   <i type="logical" name="LDMP1"> F  </i>
   <i type="logical" name="LMP2LT"> F  </i>
   <i type="logical" name="LSMP2LT"> F  </i>
   <i type="logical" name="LGWLF"> F  </i>
   <i name="ENCUTGW">     -1.60000002</i>
   <i name="ENCUTGWSOFT">     -1.60000002</i>
   <i name="ENCUTLF">     -1.00000000</i>
   <i type="logical" name="ESF_SPLINES"> F  </i>
   <i name="ESF_CONV">      0.01000000</i>
   <i type="int" name="ESF_NINTER">    15</i>
   <i type="int" name="LMAXMP2">    -1</i>
   <i name="SCISSOR">      0.00000000</i>
   <i type="int" name="NOMEGA">     0</i>
   <i type="int" name="NOMEGAR">     0</i>
   <i type="int" name="NBANDSGW">    -1</i>
   <i type="int" name="NBANDSO">    -1</i>
   <i type="int" name="NBANDSV">    -1</i>
   <i type="int" name="NELMGW">     1</i>
   <i type="int" name="NELMHF">     1</i>
   <i type="int" name="DIM">     3</i>
   <i type="int" name="IESPILON">     4</i>
   <i type="int" name="ANTIRES">     0</i>
   <i name="OMEGAMAX">    -30.00000000</i>
   <i name="OMEGAMIN">    -30.00000000</i>
   <i name="OMEGATL">   -200.00000000</i>
   <i type="int" name="OMEGAGRID">     0</i>
   <i name="CSHIFT">     -0.10000000</i>
   <i type="logical" name="LSELFENERGY"> F  </i>
   <i type="logical" name="LSPECTRAL"> F  </i>
   <i type="logical" name="LSPECTRALGW"> F  </i>
   <i type="logical" name="LSINGLES"> F  </i>
   <i type="logical" name="LFERMIGW"> F  </i>
   <i type="logical" name="ODDONLYGW"> F  </i>
   <i type="logical" name="EVENONLYGW"> F  </i>
   <i type="int" name="NKREDLFX">     1</i>
   <i type="int" name="NKREDLFY">     1</i>
   <i type="int" name="NKREDLFZ">     1</i>
   <i type="int" name="MAXMEM">  2800</i>
   <i type="int" name="TELESCOPE">     0</i>
   <i type="int" name="NTAUPAR">    -1</i>
   <i type="int" name="NOMEGAPAR">    -1</i>
   <i name="DAMP_NEWTON">      0.80000001</i>
   <i name="LAMBDA">      1.00000000</i>
  </separator>
  <separator name="External order field" >
   <i name="OFIELD_KAPPA">      0.00000000</i>
   <v name="OFIELD_K">      0.00000000      0.00000000      0.00000000</v>
   <i name="OFIELD_Q6_NEAR">      0.00000000</i>
   <i name="OFIELD_Q6_FAR">      0.00000000</i>
   <i name="OFIELD_A">      0.00000000</i>
  </separator>
  <separator name="optional k-points parameters" >
   <i type="int" name="KPOINTS_OPT_MODE">     1</i>
   <i type="logical" name="LKPOINTS_OPT"> F  </i>
  </separator>
 </parameters>
 <atominfo>
  <atoms>      40 </atoms>
  <types>       4 </types>
  <array name="atoms" >
   <dimension dim="1">ion</dimension>
   <field type="string">element</field>
   <field type="int">atomtype</field>
   <set>
    <rc><c>Bi</c><c>   1</c></rc>
    <rc><c>Bi</c><c>   1</c></rc>
    <rc><c>Bi</c><c>   1</c></rc>
    <rc><c>Bi</c><c>   1</c></rc>
    <rc><c>Bi</c><c>   1</c></rc>
    <rc><c>Bi</c><c>   1</c></rc>
    <rc><c>Bi</c><c>   1</c></rc>
    <rc><c>Bi</c><c>   1</c></rc>
    <rc><c>Bi</c><c>   1</c></rc>
    <rc><c>Bi</c><c>   1</c></rc>
    <rc><c>Bi</c><c>   1</c></rc>
    <rc><c>Bi</c><c>   1</c></rc>
    <rc><c>Bi</c><c>   1</c></rc>
    <rc><c>Bi</c><c>   1</c></rc>
    <rc><c>Bi</c><c>   1</c></rc>
    <rc><c>Bi</c><c>   1</c></rc>
    <rc><c>Se</c><c>   2</c></rc>
    <rc><c>Se</c><c>   2</c></rc>
    <rc><c>Se</c><c>   2</c></rc>
    <rc><c>Se</c><c>   2</c></rc>
    <rc><c>Se</c><c>   2</c></rc>
    <rc><c>Se</c><c>   2</c></rc>
    <rc><c>Se</c><c>   2</c></rc>
    <rc><c>O </c><c>   3</c></rc>
    <rc><c>O </c><c>   3</c></rc>
    <rc><c>O </c><c>   3</c></rc>
    <rc><c>O </c><c>   3</c></rc>
    <rc><c>O </c><c>   3</c></rc>
    <rc><c>O </c><c>   3</c></rc>
    <rc><c>O </c><c>   3</c></rc>
    <rc><c>O </c><c>   3</c></rc>
    <rc><c>O </c><c>   3</c></rc>
    <rc><c>O </c><c>   3</c></rc>
    <rc><c>O </c><c>   3</c></rc>
    <rc><c>O </c><c>   3</c></rc>
    <rc><c>O </c><c>   3</c></rc>
    <rc><c>O </c><c>   3</c></rc>
    <rc><c>O </c><c>   3</c></rc>
    <rc><c>O </c><c>   3</c></rc>
    <rc><c>S </c><c>   4</c></rc>
   </set>
  </array>
  <array name="atomtypes" >
   <dimension dim="1">type</dimension>
   <field type="int">atomspertype</field>
   <field type="string">element</field>
   <field>mass</field>
   <field>valence</field>
   <field type="string">pseudopotential</field>
   <set>
    <rc><c>  16</c><c>Bi</c><c>    208.98000000</c><c>     15.00000000</c><c>  PAW_PBE Bi_d 06Sep2000                </c></rc>
    <rc><c>   7</c><c>Se</c><c>     78.96000000</c><c>      6.00000000</c><c>  PAW_PBE Se 06Sep2000                  </c></rc>
    <rc><c>  16</c><c>O </c><c>     16.00000000</c><c>      6.00000000</c><c>  PAW_PBE O 08Apr2002                   </c></rc>
    <rc><c>   1</c><c>S </c><c>     32.06600000</c><c>      6.00000000</c><c>  PAW_PBE S 06Sep2000                   </c></rc>
   </set>
  </array>
 </atominfo>
 <structure name="initialpos" >
  <crystal>
   <varray name="basis" >
    <v>       7.64415507       0.00000000       0.00000000 </v>
    <v>       0.00000000       7.64415507       0.00000000 </v>
    <v>       0.00000000       0.00000000      12.06338426 </v>
   </varray>
   <i name="volume">    704.90102057 </i>
   <varray name="rec_basis" >
    <v>       0.13081891       0.00000000       0.00000000 </v>
    <v>       0.00000000       0.13081891       0.00000000 </v>
    <v>       0.00000000       0.00000000       0.08289548 </v>
   </varray>
  </crystal>
  <varray name="positions" >
   <v>       0.24872761       0.24872761       0.85775074 </v>
   <v>       0.75127239       0.24872761       0.85775074 </v>
   <v>       0.24872761       0.75127239       0.85775074 </v>
   <v>       0.75127239       0.75127239       0.85775074 </v>
   <v>       0.00000000       0.00000000       0.64311026 </v>
   <v>       0.50000000       0.00000000       0.64400048 </v>
   <v>       0.00000000       0.50000000       0.64400048 </v>
   <v>       0.50000000       0.50000000       0.64497248 </v>
   <v>       0.00000000       0.00000000       0.35688974 </v>
   <v>       0.50000000       0.00000000       0.35599952 </v>
   <v>       0.00000000       0.50000000       0.35599952 </v>
   <v>       0.50000000       0.50000000       0.35502752 </v>
   <v>       0.24872761       0.24872761       0.14224926 </v>
   <v>       0.75127239       0.24872761       0.14224926 </v>
   <v>       0.24872761       0.75127239       0.14224926 </v>
   <v>       0.75127239       0.75127239       0.14224926 </v>
   <v>       0.50000000       0.00000000       0.00000000 </v>
   <v>       0.00000000       0.50000000       0.00000000 </v>
   <v>       0.50000000       0.50000000       0.00000000 </v>
   <v>       0.25043556       0.25043556       0.50000000 </v>
   <v>       0.74956444       0.25043556       0.50000000 </v>
   <v>       0.25043556       0.74956444       0.50000000 </v>
   <v>       0.74956444       0.74956444       0.50000000 </v>
   <v>       0.00000000       0.24940968       0.75027413 </v>
   <v>       0.50000000       0.24954250       0.75154683 </v>
   <v>       0.00000000       0.75059032       0.75027413 </v>
   <v>       0.50000000       0.75045750       0.75154683 </v>
   <v>       0.24940968       0.00000000       0.75027413 </v>
   <v>       0.75059032       0.00000000       0.75027413 </v>
   <v>       0.24954250       0.50000000       0.75154683 </v>
   <v>       0.75045750       0.50000000       0.75154683 </v>
   <v>       0.24940968       0.00000000       0.24972587 </v>
   <v>       0.75059032       0.00000000       0.24972587 </v>
   <v>       0.24954250       0.50000000       0.24845317 </v>
   <v>       0.75045750       0.50000000       0.24845317 </v>
   <v>       0.00000000       0.24940968       0.24972587 </v>
   <v>       0.50000000       0.24954250       0.24845317 </v>
   <v>       0.00000000       0.75059032       0.24972587 </v>
   <v>       0.50000000       0.75045750       0.24845317 </v>
   <v>       0.00000000       0.00000000       0.00000000 </v>
  </varray>
 </structure>
 <calculation>
  <scstep>
   <time name="dav">   29.82   29.83</time>
   <time name="total">   30.65   30.66</time>
   <energy>
    <i name="alphaZ">   1433.04682846 </i>
    <i name="ewald"> -30513.45027825 </i>
    <i name="hartreedc"> -10745.36484280 </i>
    <i name="XCdc">   1241.54188989 </i>
    <i name="pawpsdc">  34040.00696010 </i>
    <i name="pawaedc"> -33495.80632930 </i>
    <i name="eentropy">     -0.00585041 </i>
    <i name="bandstr">   3518.94142212 </i>
    <i name="atom">  40341.65184589 </i>
    <i name="e_fr_energy">   5820.56164573 </i>
    <i name="e_wo_entrp">   5820.56749613 </i>
    <i name="e_0_energy">   5820.56457093 </i>
   </energy>
  </scstep>
  <scstep>
   <time name="dav">   29.82   29.83</time>
   <time name="total">   29.82   29.83</time>
   <energy>
    <i name="e_fr_energy">   1025.94568199 </i>
    <i name="e_wo_entrp">   1025.95196788 </i>
    <i name="e_0_energy">   1025.94882493 </i>
   </energy>
  </scstep>
  <scstep>
   <time name="dav">   32.21   32.22</time>
   <time name="total">   32.22   32.22</time>
   <energy>
    <i name="e_fr_energy">   -101.79417772 </i>
    <i name="e_wo_entrp">   -101.79315479 </i>
    <i name="e_0_energy">   -101.79366626 </i>
   </energy>
  </scstep>
  <scstep>
   <time name="dav">   34.35   34.35</time>
   <time name="total">   34.35   34.35</time>
   <energy>
    <i name="e_fr_energy">   -235.44654024 </i>
    <i name="e_wo_entrp">   -235.44654024 </i>
    <i name="e_0_energy">   -235.44654024 </i>
   </energy>
  </scstep>
  <scstep>
   <time name="dav">   33.73   33.73</time>
   <time name="total">   35.04   35.04</time>
   <energy>
    <i name="e_fr_energy">   -241.14413554 </i>
    <i name="e_wo_entrp">   -241.14413554 </i>
    <i name="e_0_energy">   -241.14413554 </i>
   </energy>
  </scstep>
  <scstep>
   <time name="dav">   38.28   38.29</time>
   <time name="total">   40.40   40.42</time>
   <energy>
    <i name="e_fr_energy">   -207.22749244 </i>
    <i name="e_wo_entrp">   -207.22749244 </i>
    <i name="e_0_energy">   -207.22749244 </i>
   </energy>
  </scstep>
  <scstep>
   <time name="dav">   31.86   31.87</time>
   <time name="total">   33.99   34.00</time>
   <energy>
    <i name="e_fr_energy">   -207.63698702 </i>
    <i name="e_wo_entrp">   -207.63698702 </i>
    <i name="e_0_energy">   -207.63698702 </i>
   </energy>
  </scstep>
  <scstep>
   <time name="dav">   39.26   39.28</time>
   <time name="total">   41.38   41.41</time>
   <energy>
    <i name="e_fr_energy">   -207.74707562 </i>
    <i name="e_wo_entrp">   -207.74707562 </i>
    <i name="e_0_energy">   -207.74707562 </i>
   </energy>
  </scstep>
  <scstep>
   <time name="dav">   36.79   36.79</time>
   <time name="total">   38.91   38.91</time>
   <energy>
    <i name="e_fr_energy">   -207.65395375 </i>
    <i name="e_wo_entrp">   -207.65395375 </i>
    <i name="e_0_energy">   -207.65395375 </i>
   </energy>
  </scstep>
  <scstep>
   <time name="dav">   35.14   35.14</time>
   <time name="total">   37.27   37.27</time>
   <energy>
    <i name="e_fr_energy">   -207.64923132 </i>
    <i name="e_wo_entrp">   -207.64923132 </i>
    <i name="e_0_energy">   -207.64923132 </i>
   </energy>
  </scstep>
  <scstep>
   <time name="dav">   35.88   35.88</time>
   <time name="total">   38.01   38.01</time>
   <energy>
    <i name="e_fr_energy">   -207.65099097 </i>
    <i name="e_wo_entrp">   -207.65099097 </i>
    <i name="e_0_energy">   -207.65099097 </i>
   </energy>
  </scstep>
  <scstep>
   <time name="dav">   37.80   37.80</time>
   <time name="total">   39.93   39.93</time>
   <energy>
    <i name="e_fr_energy">   -207.65159772 </i>
    <i name="e_wo_entrp">   -207.65159772 </i>
    <i name="e_0_energy">   -207.65159772 </i>
   </energy>
  </scstep>
  <scstep>
   <time name="dav">   33.79   33.79</time>
   <time name="total">   35.91   35.92</time>
   <energy>
    <i name="e_fr_energy">   -207.65144902 </i>
    <i name="e_wo_entrp">   -207.65144902 </i>
    <i name="e_0_energy">   -207.65144902 </i>
   </energy>
  </scstep>
  <scstep>
   <time name="dav">   33.72   33.72</time>
   <time name="total">   35.85   35.85</time>
   <energy>
    <i name="e_fr_energy">   -207.65144487 </i>
    <i name="e_wo_entrp">   -207.65144487 </i>
    <i name="e_0_energy">   -207.65144487 </i>
   </energy>
  </scstep>
  <scstep>
   <time name="dav">   36.26   36.26</time>
   <time name="total">   38.38   38.39</time>
   <energy>
    <i name="e_fr_energy">   -207.65142880 </i>
    <i name="e_wo_entrp">   -207.65142880 </i>
    <i name="e_0_energy">   -207.65142880 </i>
   </energy>
  </scstep>
  <scstep>
   <time name="dav">   33.73   33.74</time>
   <time name="total">   35.85   35.87</time>
   <energy>
    <i name="e_fr_energy">   -207.65142728 </i>
    <i name="e_wo_entrp">   -207.65142728 </i>
    <i name="e_0_energy">   -207.65142728 </i>
   </energy>
  </scstep>
  <scstep>
   <time name="dav">   32.85   32.85</time>
   <time name="total">   34.97   34.97</time>
   <energy>
    <i name="e_fr_energy">   -207.65142714 </i>
    <i name="e_wo_entrp">   -207.65142714 </i>
    <i name="e_0_energy">   -207.65142714 </i>
   </energy>
  </scstep>
  <scstep>
   <time name="dav">   31.69   31.69</time>
   <time name="total">   33.82   33.82</time>
   <energy>
    <i name="e_fr_energy">   -207.65142741 </i>
    <i name="e_wo_entrp">   -207.65142741 </i>
    <i name="e_0_energy">   -207.65142741 </i>
   </energy>
  </scstep>
  <scstep>
   <time name="dav">   32.17   32.16</time>
   <time name="total">   34.29   34.29</time>
   <energy>
    <i name="e_fr_energy">   -207.65142736 </i>
    <i name="e_wo_entrp">   -207.65142736 </i>
    <i name="e_0_energy">   -207.65142736 </i>
   </energy>
  </scstep>
  <scstep>
   <time name="dav">   29.09   29.11</time>
   <time name="total">   31.22   31.24</time>
   <energy>
    <i name="e_fr_energy">   -207.65142750 </i>
    <i name="e_wo_entrp">   -207.65142750 </i>
    <i name="e_0_energy">   -207.65142750 </i>
   </energy>
  </scstep>
  <scstep>
   <time name="dav">   29.28   29.28</time>
   <time name="total">   31.40   31.40</time>
   <energy>
    <i name="e_fr_energy">   -207.65142766 </i>
    <i name="e_wo_entrp">   -207.65142766 </i>
    <i name="e_0_energy">   -207.65142766 </i>
   </energy>
  </scstep>
  <scstep>
   <time name="dav">   21.49   21.49</time>
   <time name="total">   22.32   22.32</time>
   <energy>
    <i name="alphaZ">   1433.04682846 </i>
    <i name="ewald"> -30513.45027825 </i>
    <i name="hartreedc"> -10922.41795135 </i>
    <i name="XCdc">   1259.14800153 </i>
    <i name="pawpsdc">  36876.86216062 </i>
    <i name="pawaedc"> -36279.51135715 </i>
    <i name="eentropy">     -0.00000000 </i>
    <i name="bandstr">  -2402.98067741 </i>
    <i name="atom">  40341.65184589 </i>
    <i name="e_fr_energy">   -207.65142765 </i>
    <i name="e_wo_entrp">   -207.65142765 </i>
    <i name="e_0_energy">   -207.65142765 </i>
   </energy>
  </scstep>
  <structure>
   <crystal>
    <varray name="basis" >
     <v>       7.64415507       0.00000000       0.00000000 </v>
     <v>       0.00000000       7.64415507       0.00000000 </v>
     <v>       0.00000000       0.00000000      12.06338426 </v>
    </varray>
    <i name="volume">    704.90102057 </i>
    <varray name="rec_basis" >
     <v>       0.13081891       0.00000000       0.00000000 </v>
     <v>       0.00000000       0.13081891       0.00000000 </v>
     <v>       0.00000000       0.00000000       0.08289548 </v>
    </varray>
   </crystal>
   <varray name="positions" >
    <v>       0.24872761       0.24872761       0.85775074 </v>
    <v>       0.75127239       0.24872761       0.85775074 </v>
    <v>       0.24872761       0.75127239       0.85775074 </v>
    <v>       0.75127239       0.75127239       0.85775074 </v>
    <v>       0.00000000       0.00000000       0.64311026 </v>
    <v>       0.50000000       0.00000000       0.64400048 </v>
    <v>       0.00000000       0.50000000       0.64400048 </v>
    <v>       0.50000000       0.50000000       0.64497248 </v>
    <v>       0.00000000       0.00000000       0.35688974 </v>
    <v>       0.50000000       0.00000000       0.35599952 </v>
    <v>       0.00000000       0.50000000       0.35599952 </v>
    <v>       0.50000000       0.50000000       0.35502752 </v>
    <v>       0.24872761       0.24872761       0.14224926 </v>
    <v>       0.75127239       0.24872761       0.14224926 </v>
    <v>       0.24872761       0.75127239       0.14224926 </v>
    <v>       0.75127239       0.75127239       0.14224926 </v>
    <v>       0.50000000       0.00000000       0.00000000 </v>
    <v>       0.00000000       0.50000000       0.00000000 </v>
    <v>       0.50000000       0.50000000       0.00000000 </v>
    <v>       0.25043556       0.25043556       0.50000000 </v>
    <v>       0.74956444       0.25043556       0.50000000 </v>
    <v>       0.25043556       0.74956444       0.50000000 </v>
    <v>       0.74956444       0.74956444       0.50000000 </v>
    <v>       0.00000000       0.24940968       0.75027413 </v>
    <v>       0.50000000       0.24954250       0.75154683 </v>
    <v>       0.00000000       0.75059032       0.75027413 </v>
    <v>       0.50000000       0.75045750       0.75154683 </v>
    <v>       0.24940968       0.00000000       0.75027413 </v>
    <v>       0.75059032       0.00000000       0.75027413 </v>
    <v>       0.24954250       0.50000000       0.75154683 </v>
    <v>       0.75045750       0.50000000       0.75154683 </v>
    <v>       0.24940968       0.00000000       0.24972587 </v>
    <v>       0.75059032       0.00000000       0.24972587 </v>
    <v>       0.24954250       0.50000000       0.24845317 </v>
    <v>       0.75045750       0.50000000       0.24845317 </v>
    <v>       0.00000000       0.24940968       0.24972587 </v>
    <v>       0.50000000       0.24954250       0.24845317 </v>
    <v>       0.00000000       0.75059032       0.24972587 </v>
    <v>       0.50000000       0.75045750       0.24845317 </v>
    <v>       0.00000000       0.00000000       0.00000000 </v>
   </varray>
  </structure>
  <varray name="forces" >
   <v>      -0.00000644      -0.00000644       0.00002166 </v>
   <v>       0.00000644      -0.00000644       0.00002166 </v>
   <v>      -0.00000644       0.00000644       0.00002166 </v>
   <v>       0.00000644       0.00000644       0.00002166 </v>
   <v>       0.00000000       0.00000000      -0.00000032 </v>
   <v>       0.00000000       0.00000000       0.00000392 </v>
   <v>       0.00000000       0.00000000       0.00000392 </v>
   <v>       0.00000000       0.00000000       0.00001104 </v>
   <v>       0.00000000       0.00000000       0.00000032 </v>
   <v>       0.00000000       0.00000000      -0.00000392 </v>
   <v>       0.00000000       0.00000000      -0.00000392 </v>
   <v>       0.00000000       0.00000000      -0.00001104 </v>
   <v>      -0.00000644      -0.00000644      -0.00002166 </v>
   <v>       0.00000644      -0.00000644      -0.00002166 </v>
   <v>      -0.00000644       0.00000644      -0.00002166 </v>
   <v>       0.00000644       0.00000644      -0.00002166 </v>
   <v>       0.00000000       0.00000000      -0.00000000 </v>
   <v>       0.00000000       0.00000000       0.00000000 </v>
   <v>       0.00000000       0.00000000      -0.00000000 </v>
   <v>       0.00000682       0.00000682      -0.00000000 </v>
   <v>      -0.00000682       0.00000682       0.00000000 </v>
   <v>       0.00000682      -0.00000682      -0.00000000 </v>
   <v>      -0.00000682      -0.00000682      -0.00000000 </v>
   <v>       0.00000000       0.00000834       0.00000081 </v>
   <v>       0.00000000       0.00000449      -0.00000042 </v>
   <v>       0.00000000      -0.00000834       0.00000081 </v>
   <v>       0.00000000      -0.00000449      -0.00000042 </v>
   <v>       0.00000834       0.00000000       0.00000081 </v>
   <v>      -0.00000834       0.00000000       0.00000081 </v>
   <v>       0.00000449       0.00000000      -0.00000042 </v>
   <v>      -0.00000449       0.00000000      -0.00000042 </v>
   <v>       0.00000834       0.00000000      -0.00000081 </v>
   <v>      -0.00000834       0.00000000      -0.00000081 </v>
   <v>       0.00000449       0.00000000       0.00000042 </v>
   <v>      -0.00000449       0.00000000       0.00000042 </v>
   <v>       0.00000000       0.00000834      -0.00000081 </v>
   <v>       0.00000000       0.00000449       0.00000042 </v>
   <v>       0.00000000      -0.00000834      -0.00000081 </v>
   <v>       0.00000000      -0.00000449       0.00000042 </v>
   <v>       0.00000000       0.00000000       0.00000000 </v>
  </varray>
  <varray name="stress" >
   <v>      77.62989336       0.00000000       0.00000000 </v>
   <v>       0.00000000      77.62989336       0.00000000 </v>
   <v>      -0.00000000       0.00000000      60.05080307 </v>
  </varray>
  <energy>
   <i name="e_fr_energy">   -207.65142765 </i>
   <i name="e_wo_entrp">   -207.65142765 </i>
   <i name="e_0_energy">   -207.65142765 </i>
  </energy>
  <time name="totalsc">  795.10  795.26</time>
 </calculation>
 <calculation>
  <scstep>
   <time name="dav">   26.83   26.84</time>
   <time name="total">   28.95   28.97</time>
   <energy>
    <i name="alphaZ">   1433.04682846 </i>
    <i name="ewald"> -30513.45305730 </i>
    <i name="hartreedc"> -10922.41428962 </i>
    <i name="XCdc">   1259.14791392 </i>
    <i name="pawpsdc">  36876.85280916 </i>
    <i name="pawaedc"> -36279.50185862 </i>
    <i name="eentropy">     -0.00000000 </i>
    <i name="bandstr">  -2402.98161952 </i>
    <i name="atom">  40341.65184589 </i>
    <i name="e_fr_energy">   -207.65142761 </i>
    <i name="e_wo_entrp">   -207.65142761 </i>
    <i name="e_0_energy">   -207.65142761 </i>
   </energy>
  </scstep>
  <scstep>
   <time name="dav">   21.49   21.49</time>
   <time name="total">   23.61   23.61</time>
   <energy>
    <i name="e_fr_energy">   -207.65142761 </i>
    <i name="e_wo_entrp">   -207.65142761 </i>
    <i name="e_0_energy">   -207.65142761 </i>
   </energy>
  </scstep>
  <scstep>
   <time name="dav">   21.43   21.43</time>
   <time name="total">   23.56   23.56</time>
   <energy>
    <i name="e_fr_energy">   -207.65142760 </i>
    <i name="e_wo_entrp">   -207.65142760 </i>
    <i name="e_0_energy">   -207.65142760 </i>
   </energy>
  </scstep>
  <scstep>
   <time name="dav">   21.40   21.40</time>
   <time name="total">   23.52   23.52</time>
   <energy>
    <i name="e_fr_energy">   -207.65142760 </i>
    <i name="e_wo_entrp">   -207.65142760 </i>
    <i name="e_0_energy">   -207.65142760 </i>
   </energy>
  </scstep>
  <scstep>
   <time name="dav">   21.34   21.34</time>
   <time name="total">   22.16   22.16</time>
   <energy>
    <i name="alphaZ">   1433.04682846 </i>
    <i name="ewald"> -30513.45305730 </i>
    <i name="hartreedc"> -10922.41414035 </i>
    <i name="XCdc">   1259.14789809 </i>
    <i name="pawpsdc">  36876.84557949 </i>
    <i name="pawaedc"> -36279.49463129 </i>
    <i name="eentropy">     -0.00000000 </i>
    <i name="bandstr">  -2402.98175061 </i>
    <i name="atom">  40341.65184589 </i>
    <i name="e_fr_energy">   -207.65142760 </i>
    <i name="e_wo_entrp">   -207.65142760 </i>
    <i name="e_0_energy">   -207.65142760 </i>
   </energy>
  </scstep>
  <structure>
   <crystal>
    <varray name="basis" >
     <v>       7.64415507       0.00000000       0.00000000 </v>
     <v>       0.00000000       7.64415507       0.00000000 </v>
     <v>       0.00000000       0.00000000      12.06338426 </v>
    </varray>
    <i name="volume">    704.90102057 </i>
    <varray name="rec_basis" >
     <v>       0.13081891       0.00000000       0.00000000 </v>
     <v>       0.00000000       0.13081891       0.00000000 </v>
     <v>       0.00000000       0.00000000       0.08289548 </v>
    </varray>
   </crystal>
   <varray name="positions" >
    <v>       0.24872757       0.24872757       0.85775083 </v>
    <v>       0.75127243       0.24872757       0.85775083 </v>
    <v>       0.24872757       0.75127243       0.85775083 </v>
    <v>       0.75127243       0.75127243       0.85775083 </v>
    <v>       0.00000000       0.00000000       0.64311026 </v>
    <v>       0.50000000       0.00000000       0.64400049 </v>
    <v>       0.00000000       0.50000000       0.64400049 </v>
    <v>       0.50000000       0.50000000       0.64497252 </v>
    <v>       0.00000000       0.00000000       0.35688974 </v>
    <v>       0.50000000       0.00000000       0.35599951 </v>
    <v>       0.00000000       0.50000000       0.35599951 </v>
    <v>       0.50000000       0.50000000       0.35502748 </v>
    <v>       0.24872757       0.24872757       0.14224917 </v>
    <v>       0.75127243       0.24872757       0.14224917 </v>
    <v>       0.24872757       0.75127243       0.14224917 </v>
    <v>       0.75127243       0.75127243       0.14224917 </v>
    <v>       0.50000000       0.00000000       1.00000000 </v>
    <v>       0.00000000       0.50000000       0.00000000 </v>
    <v>       0.50000000       0.50000000       1.00000000 </v>
    <v>       0.25043561       0.25043561       0.50000000 </v>
    <v>       0.74956439       0.25043561       0.50000000 </v>
    <v>       0.25043561       0.74956439       0.50000000 </v>
    <v>       0.74956439       0.74956439       0.50000000 </v>
    <v>       0.00000000       0.24940974       0.75027413 </v>
    <v>       0.50000000       0.24954253       0.75154682 </v>
    <v>       0.00000000       0.75059026       0.75027413 </v>
    <v>       0.50000000       0.75045747       0.75154682 </v>
    <v>       0.24940974       0.00000000       0.75027413 </v>
    <v>       0.75059026       0.00000000       0.75027413 </v>
    <v>       0.24954253       0.50000000       0.75154682 </v>
    <v>       0.75045747       0.50000000       0.75154682 </v>
    <v>       0.24940974       0.00000000       0.24972587 </v>
    <v>       0.75059026       0.00000000       0.24972587 </v>
    <v>       0.24954253       0.50000000       0.24845318 </v>
    <v>       0.75045747       0.50000000       0.24845318 </v>
    <v>       0.00000000       0.24940974       0.24972587 </v>
    <v>       0.50000000       0.24954253       0.24845318 </v>
    <v>       0.00000000       0.75059026       0.24972587 </v>
    <v>       0.50000000       0.75045747       0.24845318 </v>
    <v>       0.00000000       0.00000000       0.00000000 </v>
   </varray>
  </structure>
  <varray name="forces" >
   <v>       0.00000963       0.00000963      -0.00003756 </v>
   <v>      -0.00000963       0.00000963      -0.00003756 </v>
   <v>       0.00000963      -0.00000963      -0.00003756 </v>
   <v>      -0.00000963      -0.00000963      -0.00003756 </v>
   <v>      -0.00000000       0.00000000       0.00000530 </v>
   <v>       0.00000000       0.00000000       0.00000859 </v>
   <v>       0.00000000      -0.00000000       0.00000859 </v>
   <v>      -0.00000000       0.00000000       0.00000992 </v>
   <v>       0.00000000       0.00000000      -0.00000530 </v>
   <v>      -0.00000000      -0.00000000      -0.00000859 </v>
   <v>      -0.00000000      -0.00000000      -0.00000859 </v>
   <v>       0.00000000       0.00000000      -0.00000992 </v>
   <v>       0.00000963       0.00000963       0.00003756 </v>
   <v>      -0.00000963       0.00000963       0.00003756 </v>
   <v>       0.00000963      -0.00000963       0.00003756 </v>
   <v>      -0.00000963      -0.00000963       0.00003756 </v>
   <v>      -0.00000000       0.00000000       0.00000000 </v>
   <v>      -0.00000000      -0.00000000       0.00000000 </v>
   <v>      -0.00000000      -0.00000000       0.00000000 </v>
   <v>       0.00000230       0.00000230       0.00000000 </v>
   <v>      -0.00000230       0.00000230       0.00000000 </v>
   <v>       0.00000230      -0.00000230       0.00000000 </v>
   <v>      -0.00000230      -0.00000230       0.00000000 </v>
   <v>       0.00000000      -0.00000001       0.00000717 </v>
   <v>       0.00000000      -0.00000110       0.00000911 </v>
   <v>       0.00000000       0.00000001       0.00000717 </v>
   <v>       0.00000000       0.00000110       0.00000911 </v>
   <v>      -0.00000001      -0.00000000       0.00000717 </v>
   <v>       0.00000001      -0.00000000       0.00000717 </v>
   <v>      -0.00000110      -0.00000000       0.00000911 </v>
   <v>       0.00000110      -0.00000000       0.00000911 </v>
   <v>      -0.00000001       0.00000000      -0.00000717 </v>
   <v>       0.00000001       0.00000000      -0.00000717 </v>
   <v>      -0.00000110       0.00000000      -0.00000911 </v>
   <v>       0.00000110       0.00000000      -0.00000911 </v>
   <v>      -0.00000000      -0.00000001      -0.00000717 </v>
   <v>       0.00000000      -0.00000110      -0.00000911 </v>
   <v>       0.00000000       0.00000001      -0.00000717 </v>
   <v>      -0.00000000       0.00000110      -0.00000911 </v>
   <v>       0.00000000      -0.00000000       0.00000000 </v>
  </varray>
  <varray name="stress" >
   <v>      77.63343913       0.00000000       0.00000000 </v>
   <v>       0.00000000      77.63343913       0.00000000 </v>
   <v>       0.00000000       0.00000000      60.05517796 </v>
  </varray>
  <energy>
   <i name="e_fr_energy">   -207.65142760 </i>
   <i name="e_wo_entrp">   -207.65142760 </i>
   <i name="e_0_energy">   -207.65142760 </i>
  </energy>
  <time name="totalsc">  151.25  151.28</time>
 </calculation>
 <calculation>
  <scstep>
   <time name="dav">   24.81   24.81</time>
   <time name="total">   26.94   26.94</time>
   <energy>
    <i name="alphaZ">   1433.04682846 </i>
    <i name="ewald"> -30513.45153487 </i>
    <i name="hartreedc"> -10922.41557028 </i>
    <i name="XCdc">   1259.14790344 </i>
    <i name="pawpsdc">  36876.84511512 </i>
    <i name="pawaedc"> -36279.49417375 </i>
    <i name="eentropy">     -0.00000000 </i>
    <i name="bandstr">  -2402.98184162 </i>
    <i name="atom">  40341.65184589 </i>
    <i name="e_fr_energy">   -207.65142760 </i>
    <i name="e_wo_entrp">   -207.65142760 </i>
    <i name="e_0_energy">   -207.65142760 </i>
   </energy>
  </scstep>
  <scstep>
   <time name="dav">   21.34   21.34</time>
   <time name="total">   23.46   23.46</time>
   <energy>
    <i name="e_fr_energy">   -207.65142760 </i>
    <i name="e_wo_entrp">   -207.65142760 </i>
    <i name="e_0_energy">   -207.65142760 </i>
   </energy>
  </scstep>
  <scstep>
   <time name="dav">   21.28   21.28</time>
   <time name="total">   23.40   23.40</time>
   <energy>
    <i name="e_fr_energy">   -207.65142760 </i>
    <i name="e_wo_entrp">   -207.65142760 </i>
    <i name="e_0_energy">   -207.65142760 </i>
   </energy>
  </scstep>
  <scstep>
   <time name="dav">   21.15   21.15</time>
   <time name="total">   23.27   23.27</time>
   <energy>
    <i name="e_fr_energy">   -207.65142760 </i>
    <i name="e_wo_entrp">   -207.65142760 </i>
    <i name="e_0_energy">   -207.65142760 </i>
   </energy>
  </scstep>
  <scstep>
   <time name="dav">   21.09   21.09</time>
   <time name="total">   21.92   21.92</time>
   <energy>
    <i name="alphaZ">   1433.04682846 </i>
    <i name="ewald"> -30513.45153487 </i>
    <i name="hartreedc"> -10922.41558182 </i>
    <i name="XCdc">   1259.14790677 </i>
    <i name="pawpsdc">  36876.84554498 </i>
    <i name="pawaedc"> -36279.49461276 </i>
    <i name="eentropy">     -0.00000000 </i>
    <i name="bandstr">  -2402.98182427 </i>
    <i name="atom">  40341.65184589 </i>
    <i name="e_fr_energy">   -207.65142760 </i>
    <i name="e_wo_entrp">   -207.65142760 </i>
    <i name="e_0_energy">   -207.65142760 </i>
   </energy>
  </scstep>
  <structure>
   <crystal>
    <varray name="basis" >
     <v>       7.64415507       0.00000000       0.00000000 </v>
     <v>       0.00000000       7.64415507       0.00000000 </v>
     <v>       0.00000000       0.00000000      12.06338426 </v>
    </varray>
    <i name="volume">    704.90102057 </i>
    <varray name="rec_basis" >
     <v>       0.13081891       0.00000000       0.00000000 </v>
     <v>       0.00000000       0.13081891       0.00000000 </v>
     <v>       0.00000000       0.00000000       0.08289548 </v>
    </varray>
   </crystal>
   <varray name="positions" >
    <v>       0.24872759       0.24872759       0.85775078 </v>
    <v>       0.75127241       0.24872759       0.85775078 </v>
    <v>       0.24872759       0.75127241       0.85775078 </v>
    <v>       0.75127241       0.75127241       0.85775078 </v>
    <v>       0.00000000       0.00000000       0.64311026 </v>
    <v>       0.50000000       0.00000000       0.64400048 </v>
    <v>       0.00000000       0.50000000       0.64400048 </v>
    <v>       0.50000000       0.50000000       0.64497250 </v>
    <v>       0.00000000       0.00000000       0.35688974 </v>
    <v>       0.50000000       0.00000000       0.35599952 </v>
    <v>       0.00000000       0.50000000       0.35599952 </v>
    <v>       0.50000000       0.50000000       0.35502750 </v>
    <v>       0.24872759       0.24872759       0.14224922 </v>
    <v>       0.75127241       0.24872759       0.14224922 </v>
    <v>       0.24872759       0.75127241       0.14224922 </v>
    <v>       0.75127241       0.75127241       0.14224922 </v>
    <v>       0.50000000       0.00000000       0.00000000 </v>
    <v>       0.00000000       0.50000000       0.00000000 </v>
    <v>       0.50000000       0.50000000       0.00000000 </v>
    <v>       0.25043558       0.25043558       0.50000000 </v>
    <v>       0.74956442       0.25043558       0.50000000 </v>
    <v>       0.25043558       0.74956442       0.50000000 </v>
    <v>       0.74956442       0.74956442       0.50000000 </v>
    <v>       0.00000000       0.24940971       0.75027413 </v>
    <v>       0.50000000       0.24954251       0.75154683 </v>
    <v>       0.00000000       0.75059029       0.75027413 </v>
    <v>       0.50000000       0.75045749       0.75154683 </v>
    <v>       0.24940971       0.00000000       0.75027413 </v>
    <v>       0.75059029       0.00000000       0.75027413 </v>
    <v>       0.24954251       0.50000000       0.75154683 </v>
    <v>       0.75045749       0.50000000       0.75154683 </v>
    <v>       0.24940971       0.00000000       0.24972587 </v>
    <v>       0.75059029       0.00000000       0.24972587 </v>
    <v>       0.24954251       0.50000000       0.24845317 </v>
    <v>       0.75045749       0.50000000       0.24845317 </v>
    <v>       0.00000000       0.24940971       0.24972587 </v>
    <v>       0.50000000       0.24954251       0.24845317 </v>
    <v>       0.00000000       0.75059029       0.24972587 </v>
    <v>       0.50000000       0.75045749       0.24845317 </v>
    <v>       0.00000000       0.00000000       0.00000000 </v>
   </varray>
  </structure>
  <varray name="forces" >
   <v>      -0.00000413      -0.00000413       0.00001169 </v>
   <v>       0.00000413      -0.00000413       0.00001169 </v>
   <v>      -0.00000413       0.00000413       0.00001169 </v>
   <v>       0.00000413       0.00000413       0.00001169 </v>
   <v>      -0.00000000      -0.00000000       0.00000499 </v>
   <v>      -0.00000000      -0.00000000       0.00001670 </v>
   <v>      -0.00000000      -0.00000000       0.00001670 </v>
   <v>      -0.00000000      -0.00000000       0.00003013 </v>
   <v>      -0.00000000      -0.00000000      -0.00000499 </v>
   <v>      -0.00000000      -0.00000000      -0.00001670 </v>
   <v>      -0.00000000      -0.00000000      -0.00001670 </v>
   <v>      -0.00000000      -0.00000000      -0.00003013 </v>
   <v>      -0.00000413      -0.00000413      -0.00001169 </v>
   <v>       0.00000413      -0.00000413      -0.00001169 </v>
   <v>      -0.00000413       0.00000413      -0.00001169 </v>
   <v>       0.00000413       0.00000413      -0.00001169 </v>
   <v>      -0.00000000      -0.00000000      -0.00000000 </v>
   <v>      -0.00000000      -0.00000000      -0.00000000 </v>
   <v>      -0.00000000      -0.00000000      -0.00000000 </v>
   <v>       0.00000528       0.00000528      -0.00000000 </v>
   <v>      -0.00000528       0.00000528      -0.00000000 </v>
   <v>       0.00000528      -0.00000528      -0.00000000 </v>
   <v>      -0.00000528      -0.00000528      -0.00000000 </v>
   <v>      -0.00000000       0.00000607       0.00000513 </v>
   <v>      -0.00000000       0.00000251       0.00000458 </v>
   <v>      -0.00000000      -0.00000607       0.00000513 </v>
   <v>      -0.00000000      -0.00000251       0.00000458 </v>
   <v>       0.00000607      -0.00000000       0.00000513 </v>
   <v>      -0.00000607      -0.00000000       0.00000513 </v>
   <v>       0.00000251      -0.00000000       0.00000458 </v>
   <v>      -0.00000251      -0.00000000       0.00000458 </v>
   <v>       0.00000607      -0.00000000      -0.00000513 </v>
   <v>      -0.00000607      -0.00000000      -0.00000513 </v>
   <v>       0.00000251      -0.00000000      -0.00000458 </v>
   <v>      -0.00000251      -0.00000000      -0.00000458 </v>
   <v>      -0.00000000       0.00000607      -0.00000513 </v>
   <v>      -0.00000000       0.00000251      -0.00000458 </v>
   <v>      -0.00000000      -0.00000607      -0.00000513 </v>
   <v>      -0.00000000      -0.00000251      -0.00000458 </v>
   <v>      -0.00000000      -0.00000000      -0.00000000 </v>
  </varray>
  <varray name="stress" >
   <v>      77.63348720       0.00000000       0.00000000 </v>
   <v>       0.00000000      77.63348720      -0.00000000 </v>
   <v>       0.00000000       0.00000000      60.05528694 </v>
  </varray>
  <energy>
   <i name="e_fr_energy">   -207.65142760 </i>
   <i name="e_wo_entrp">   -207.65142760 </i>
   <i name="e_0_energy">   -207.65142760 </i>
  </energy>
  <time name="totalsc">  148.46  148.46</time>
 </calculation>
 <calculation>
  <scstep>
   <time name="dav">   20.96   20.96</time>
   <time name="total">   23.09   23.09</time>
   <energy>
    <i name="alphaZ">   1433.04682846 </i>
    <i name="ewald"> -30513.45210122 </i>
    <i name="hartreedc"> -10922.41505370 </i>
    <i name="XCdc">   1259.14790530 </i>
    <i name="pawpsdc">  36876.84559556 </i>
    <i name="pawaedc"> -36279.49466357 </i>
    <i name="eentropy">     -0.00000000 </i>
    <i name="bandstr">  -2402.98178432 </i>
    <i name="atom">  40341.65184589 </i>
    <i name="e_fr_energy">   -207.65142760 </i>
    <i name="e_wo_entrp">   -207.65142760 </i>
    <i name="e_0_energy">   -207.65142760 </i>
   </energy>
  </scstep>
  <scstep>
   <time name="dav">   20.79   20.79</time>
   <time name="total">   22.92   22.92</time>
   <energy>
    <i name="e_fr_energy">   -207.65142760 </i>
    <i name="e_wo_entrp">   -207.65142760 </i>
    <i name="e_0_energy">   -207.65142760 </i>
   </energy>
  </scstep>
  <scstep>
   <time name="dav">   20.79   20.79</time>
   <time name="total">   22.91   22.91</time>
   <energy>
    <i name="e_fr_energy">   -207.65142760 </i>
    <i name="e_wo_entrp">   -207.65142760 </i>
    <i name="e_0_energy">   -207.65142760 </i>
   </energy>
  </scstep>
  <scstep>
   <time name="dav">   20.64   20.66</time>
   <time name="total">   22.77   22.78</time>
   <energy>
    <i name="e_fr_energy">   -207.65142760 </i>
    <i name="e_wo_entrp">   -207.65142760 </i>
    <i name="e_0_energy">   -207.65142760 </i>
   </energy>
  </scstep>
  <scstep>
   <time name="dav">   20.52   20.54</time>
   <time name="total">   21.35   21.36</time>
   <energy>
    <i name="alphaZ">   1433.04682846 </i>
    <i name="ewald"> -30513.45210122 </i>
    <i name="hartreedc"> -10922.41505228 </i>
    <i name="XCdc">   1259.14790411 </i>
    <i name="pawpsdc">  36876.84535180 </i>
    <i name="pawaedc"> -36279.49441777 </i>
    <i name="eentropy">     -0.00000000 </i>
    <i name="bandstr">  -2402.98178659 </i>
    <i name="atom">  40341.65184589 </i>
    <i name="e_fr_energy">   -207.65142760 </i>
    <i name="e_wo_entrp">   -207.65142760 </i>
    <i name="e_0_energy">   -207.65142760 </i>
   </energy>
  </scstep>
  <structure>
   <crystal>
    <varray name="basis" >
     <v>       7.64415507       0.00000000       0.00000000 </v>
     <v>       0.00000000       7.64415507       0.00000000 </v>
     <v>       0.00000000       0.00000000      12.06338426 </v>
    </varray>
    <i name="volume">    704.90102057 </i>
    <varray name="rec_basis" >
     <v>       0.13081891       0.00000000       0.00000000 </v>
     <v>       0.00000000       0.13081891       0.00000000 </v>
     <v>       0.00000000       0.00000000       0.08289548 </v>
    </varray>
   </crystal>
   <varray name="positions" >
    <v>       0.24872759       0.24872759       0.85775080 </v>
    <v>       0.75127241       0.24872759       0.85775080 </v>
    <v>       0.24872759       0.75127241       0.85775080 </v>
    <v>       0.75127241       0.75127241       0.85775080 </v>
    <v>       0.00000000       0.00000000       0.64311026 </v>
    <v>       0.50000000       0.00000000       0.64400049 </v>
    <v>       0.00000000       0.50000000       0.64400049 </v>
    <v>       0.50000000       0.50000000       0.64497251 </v>
    <v>       0.00000000       0.00000000       0.35688974 </v>
    <v>       0.50000000       0.00000000       0.35599951 </v>
    <v>       0.00000000       0.50000000       0.35599951 </v>
    <v>       0.50000000       0.50000000       0.35502749 </v>
    <v>       0.24872759       0.24872759       0.14224920 </v>
    <v>       0.75127241       0.24872759       0.14224920 </v>
    <v>       0.24872759       0.75127241       0.14224920 </v>
    <v>       0.75127241       0.75127241       0.14224920 </v>
    <v>       0.50000000       0.00000000       1.00000000 </v>
    <v>       0.00000000       0.50000000       0.00000000 </v>
    <v>       0.50000000       0.50000000       1.00000000 </v>
    <v>       0.25043559       0.25043559       0.50000000 </v>
    <v>       0.74956441       0.25043559       0.50000000 </v>
    <v>       0.25043559       0.74956441       0.50000000 </v>
    <v>       0.74956441       0.74956441       0.50000000 </v>
    <v>       0.00000000       0.24940972       0.75027413 </v>
    <v>       0.50000000       0.24954252       0.75154682 </v>
    <v>       0.00000000       0.75059028       0.75027413 </v>
    <v>       0.50000000       0.75045748       0.75154682 </v>
    <v>       0.24940972       0.00000000       0.75027413 </v>
    <v>       0.75059028       0.00000000       0.75027413 </v>
    <v>       0.24954252       0.50000000       0.75154682 </v>
    <v>       0.75045748       0.50000000       0.75154682 </v>
    <v>       0.24940972       0.00000000       0.24972587 </v>
    <v>       0.75059028       0.00000000       0.24972587 </v>
    <v>       0.24954252       0.50000000       0.24845318 </v>
    <v>       0.75045748       0.50000000       0.24845318 </v>
    <v>       0.00000000       0.24940972       0.24972587 </v>
    <v>       0.50000000       0.24954252       0.24845318 </v>
    <v>       0.00000000       0.75059028       0.24972587 </v>
    <v>       0.50000000       0.75045748       0.24845318 </v>
    <v>       0.00000000       0.00000000       0.00000000 </v>
   </varray>
  </structure>
  <varray name="forces" >
   <v>       0.00000501       0.00000501      -0.00001957 </v>
   <v>      -0.00000501       0.00000501      -0.00001957 </v>
   <v>       0.00000501      -0.00000501      -0.00001957 </v>
   <v>      -0.00000501      -0.00000501      -0.00001957 </v>
   <v>      -0.00000000      -0.00000000       0.00000540 </v>
   <v>      -0.00000000      -0.00000000       0.00001128 </v>
   <v>       0.00000000      -0.00000000       0.00001128 </v>
   <v>      -0.00000000      -0.00000000       0.00001619 </v>
   <v>       0.00000000      -0.00000000      -0.00000540 </v>
   <v>       0.00000000      -0.00000000      -0.00001128 </v>
   <v>      -0.00000000      -0.00000000      -0.00001128 </v>
   <v>       0.00000000      -0.00000000      -0.00001619 </v>
   <v>       0.00000501       0.00000501       0.00001957 </v>
   <v>      -0.00000501       0.00000501       0.00001957 </v>
   <v>       0.00000501      -0.00000501       0.00001957 </v>
   <v>      -0.00000501      -0.00000501       0.00001957 </v>
   <v>       0.00000000      -0.00000000       0.00000000 </v>
   <v>       0.00000000      -0.00000000       0.00000000 </v>
   <v>       0.00000000      -0.00000000       0.00000000 </v>
   <v>       0.00000408       0.00000408       0.00000000 </v>
   <v>      -0.00000408       0.00000408       0.00000000 </v>
   <v>       0.00000408      -0.00000408       0.00000000 </v>
   <v>      -0.00000408      -0.00000408       0.00000000 </v>
   <v>      -0.00000000       0.00000262       0.00000560 </v>
   <v>       0.00000000       0.00000043       0.00000640 </v>
   <v>       0.00000000      -0.00000262       0.00000560 </v>
   <v>       0.00000000      -0.00000043       0.00000640 </v>
   <v>       0.00000262      -0.00000000       0.00000560 </v>
   <v>      -0.00000262      -0.00000000       0.00000560 </v>
   <v>       0.00000043      -0.00000000       0.00000640 </v>
   <v>      -0.00000043      -0.00000000       0.00000640 </v>
   <v>       0.00000262      -0.00000000      -0.00000560 </v>
   <v>      -0.00000262      -0.00000000      -0.00000560 </v>
   <v>       0.00000043      -0.00000000      -0.00000640 </v>
   <v>      -0.00000043      -0.00000000      -0.00000640 </v>
   <v>       0.00000000       0.00000262      -0.00000560 </v>
   <v>      -0.00000000       0.00000043      -0.00000640 </v>
   <v>      -0.00000000      -0.00000262      -0.00000560 </v>
   <v>       0.00000000      -0.00000043      -0.00000640 </v>
   <v>      -0.00000000      -0.00000000       0.00000000 </v>
  </varray>
  <varray name="stress" >
   <v>      77.63341860       0.00000000       0.00000000 </v>
   <v>       0.00000000      77.63341860       0.00000000 </v>
   <v>      -0.00000000       0.00000000      60.05519542 </v>
  </varray>
  <energy>
   <i name="e_fr_energy">   -207.65142760 </i>
   <i name="e_wo_entrp">   -207.65142760 </i>
   <i name="e_0_energy">   -207.65142760 </i>
  </energy>
  <time name="totalsc">  142.47  142.50</time>
 </calculation>
 <calculation>
  <scstep>
   <time name="dav">   20.51   20.52</time>
   <time name="total">   22.64   22.66</time>
   <energy>
    <i name="alphaZ">   1433.04682846 </i>
    <i name="ewald"> -30513.45186678 </i>
    <i name="hartreedc"> -10922.41527380 </i>
    <i name="XCdc">   1259.14790487 </i>
    <i name="pawpsdc">  36876.84532756 </i>
    <i name="pawaedc"> -36279.49439325 </i>
    <i name="eentropy">     -0.00000000 </i>
    <i name="bandstr">  -2402.98180056 </i>
    <i name="atom">  40341.65184589 </i>
    <i name="e_fr_energy">   -207.65142760 </i>
    <i name="e_wo_entrp">   -207.65142760 </i>
    <i name="e_0_energy">   -207.65142760 </i>
   </energy>
  </scstep>
  <scstep>
   <time name="dav">   20.52   20.53</time>
   <time name="total">   22.65   22.65</time>
   <energy>
    <i name="e_fr_energy">   -207.65142760 </i>
    <i name="e_wo_entrp">   -207.65142760 </i>
    <i name="e_0_energy">   -207.65142760 </i>
   </energy>
  </scstep>
  <scstep>
   <time name="dav">   20.47   20.48</time>
   <time name="total">   22.59   22.61</time>
   <energy>
    <i name="e_fr_energy">   -207.65142760 </i>
    <i name="e_wo_entrp">   -207.65142760 </i>
    <i name="e_0_energy">   -207.65142760 </i>
   </energy>
  </scstep>
  <scstep>
   <time name="dav">   20.51   20.52</time>
   <time name="total">   22.63   22.64</time>
   <energy>
    <i name="e_fr_energy">   -207.65142760 </i>
    <i name="e_wo_entrp">   -207.65142760 </i>
    <i name="e_0_energy">   -207.65142760 </i>
   </energy>
  </scstep>
  <scstep>
   <time name="dav">   20.48   20.49</time>
   <time name="total">   21.30   21.31</time>
   <energy>
    <i name="alphaZ">   1433.04682846 </i>
    <i name="ewald"> -30513.45186678 </i>
    <i name="hartreedc"> -10922.41527490 </i>
    <i name="XCdc">   1259.14790547 </i>
    <i name="pawpsdc">  36876.84540506 </i>
    <i name="pawaedc"> -36279.49447159 </i>
    <i name="eentropy">     -0.00000000 </i>
    <i name="bandstr">  -2402.98179922 </i>
    <i name="atom">  40341.65184589 </i>
    <i name="e_fr_energy">   -207.65142760 </i>
    <i name="e_wo_entrp">   -207.65142760 </i>
    <i name="e_0_energy">   -207.65142760 </i>
   </energy>
  </scstep>
  <structure>
   <crystal>
    <varray name="basis" >
     <v>       7.64415507       0.00000000       0.00000000 </v>
     <v>       0.00000000       7.64415507       0.00000000 </v>
     <v>       0.00000000       0.00000000      12.06338426 </v>
    </varray>
    <i name="volume">    704.90102057 </i>
    <varray name="rec_basis" >
     <v>       0.13081891       0.00000000       0.00000000 </v>
     <v>       0.00000000       0.13081891       0.00000000 </v>
     <v>       0.00000000       0.00000000       0.08289548 </v>
    </varray>
   </crystal>
   <varray name="positions" >
    <v>       0.24872759       0.24872759       0.85775079 </v>
    <v>       0.75127241       0.24872759       0.85775079 </v>
    <v>       0.24872759       0.75127241       0.85775079 </v>
    <v>       0.75127241       0.75127241       0.85775079 </v>
    <v>       0.00000000       0.00000000       0.64311026 </v>
    <v>       0.50000000       0.00000000       0.64400049 </v>
    <v>       0.00000000       0.50000000       0.64400049 </v>
    <v>       0.50000000       0.50000000       0.64497250 </v>
    <v>       0.00000000       0.00000000       0.35688974 </v>
    <v>       0.50000000       0.00000000       0.35599951 </v>
    <v>       0.00000000       0.50000000       0.35599951 </v>
    <v>       0.50000000       0.50000000       0.35502750 </v>
    <v>       0.24872759       0.24872759       0.14224921 </v>
    <v>       0.75127241       0.24872759       0.14224921 </v>
    <v>       0.24872759       0.75127241       0.14224921 </v>
    <v>       0.75127241       0.75127241       0.14224921 </v>
    <v>       0.50000000       0.00000000       0.00000000 </v>
    <v>       0.00000000       0.50000000       0.00000000 </v>
    <v>       0.50000000       0.50000000       0.00000000 </v>
    <v>       0.25043559       0.25043559       0.50000000 </v>
    <v>       0.74956441       0.25043559       0.50000000 </v>
    <v>       0.25043559       0.74956441       0.50000000 </v>
    <v>       0.74956441       0.74956441       0.50000000 </v>
    <v>       0.00000000       0.24940971       0.75027413 </v>
    <v>       0.50000000       0.24954252       0.75154682 </v>
    <v>       0.00000000       0.75059029       0.75027413 </v>
    <v>       0.50000000       0.75045748       0.75154682 </v>
    <v>       0.24940971       0.00000000       0.75027413 </v>
    <v>       0.75059029       0.00000000       0.75027413 </v>
    <v>       0.24954252       0.50000000       0.75154682 </v>
    <v>       0.75045748       0.50000000       0.75154682 </v>
    <v>       0.24940971       0.00000000       0.24972587 </v>
    <v>       0.75059029       0.00000000       0.24972587 </v>
    <v>       0.24954252       0.50000000       0.24845318 </v>
    <v>       0.75045748       0.50000000       0.24845318 </v>
    <v>       0.00000000       0.24940971       0.24972587 </v>
    <v>       0.50000000       0.24954252       0.24845318 </v>
    <v>       0.00000000       0.75059029       0.24972587 </v>
    <v>       0.50000000       0.75045748       0.24845318 </v>
    <v>       0.00000000       0.00000000       0.00000000 </v>
   </varray>
  </structure>
  <varray name="forces" >
   <v>      -0.00000286      -0.00000286       0.00000646 </v>
   <v>       0.00000286      -0.00000286       0.00000646 </v>
   <v>      -0.00000286       0.00000286       0.00000646 </v>
   <v>       0.00000286       0.00000286       0.00000646 </v>
   <v>       0.00000000      -0.00000000       0.00000516 </v>
   <v>      -0.00000000      -0.00000000       0.00001609 </v>
   <v>       0.00000000      -0.00000000       0.00001609 </v>
   <v>      -0.00000000      -0.00000000       0.00002905 </v>
   <v>      -0.00000000      -0.00000000      -0.00000516 </v>
   <v>      -0.00000000      -0.00000000      -0.00001609 </v>
   <v>      -0.00000000      -0.00000000      -0.00001609 </v>
   <v>       0.00000000      -0.00000000      -0.00002905 </v>
   <v>      -0.00000286      -0.00000286      -0.00000646 </v>
   <v>       0.00000286      -0.00000286      -0.00000646 </v>
   <v>      -0.00000286       0.00000286      -0.00000646 </v>
   <v>       0.00000286       0.00000286      -0.00000646 </v>
   <v>      -0.00000000      -0.00000000       0.00000000 </v>
   <v>       0.00000000      -0.00000000       0.00000000 </v>
   <v>       0.00000000      -0.00000000       0.00000000 </v>
   <v>       0.00000464       0.00000464       0.00000000 </v>
   <v>      -0.00000464       0.00000464       0.00000000 </v>
   <v>       0.00000464      -0.00000464       0.00000000 </v>
   <v>      -0.00000464      -0.00000464       0.00000000 </v>
   <v>       0.00000000       0.00000430       0.00000550 </v>
   <v>       0.00000000       0.00000146       0.00000564 </v>
   <v>       0.00000000      -0.00000430       0.00000550 </v>
   <v>       0.00000000      -0.00000146       0.00000564 </v>
   <v>       0.00000430      -0.00000000       0.00000550 </v>
   <v>      -0.00000430      -0.00000000       0.00000550 </v>
   <v>       0.00000146      -0.00000000       0.00000564 </v>
   <v>      -0.00000146      -0.00000000       0.00000564 </v>
   <v>       0.00000430      -0.00000000      -0.00000550 </v>
   <v>      -0.00000430      -0.00000000      -0.00000550 </v>
   <v>       0.00000146      -0.00000000      -0.00000564 </v>
   <v>      -0.00000146      -0.00000000      -0.00000564 </v>
   <v>       0.00000000       0.00000430      -0.00000550 </v>
   <v>       0.00000000       0.00000146      -0.00000564 </v>
   <v>       0.00000000      -0.00000430      -0.00000550 </v>
   <v>       0.00000000      -0.00000146      -0.00000564 </v>
   <v>       0.00000000      -0.00000000       0.00000000 </v>
  </varray>
  <varray name="stress" >
   <v>      77.63345220       0.00000000       0.00000000 </v>
   <v>       0.00000000      77.63345220       0.00000000 </v>
   <v>       0.00000000       0.00000000      60.05523584 </v>
  </varray>
  <energy>
   <i name="e_fr_energy">   -207.65142760 </i>
   <i name="e_wo_entrp">   -207.65142760 </i>
   <i name="e_0_energy">   -207.65142760 </i>
  </energy>
  <time name="totalsc">  141.22  141.29</time>
 </calculation>
 <calculation>
  <scstep>
   <time name="dav">   20.53   20.54</time>
   <time name="total">   22.66   22.67</time>
   <energy>
    <i name="alphaZ">   1433.04682846 </i>
    <i name="ewald"> -30513.45198327 </i>
    <i name="hartreedc"> -10922.41516496 </i>
    <i name="XCdc">   1259.14790509 </i>
    <i name="pawpsdc">  36876.84541237 </i>
    <i name="pawaedc"> -36279.49447897 </i>
    <i name="eentropy">     -0.00000000 </i>
    <i name="bandstr">  -2402.98179221 </i>
    <i name="atom">  40341.65184589 </i>
    <i name="e_fr_energy">   -207.65142760 </i>
    <i name="e_wo_entrp">   -207.65142760 </i>
    <i name="e_0_energy">   -207.65142760 </i>
   </energy>
  </scstep>
  <scstep>
   <time name="dav">   20.48   20.49</time>
   <time name="total">   22.60   22.61</time>
   <energy>
    <i name="e_fr_energy">   -207.65142760 </i>
    <i name="e_wo_entrp">   -207.65142760 </i>
    <i name="e_0_energy">   -207.65142760 </i>
   </energy>
  </scstep>
  <scstep>
   <time name="dav">   20.52   20.52</time>
   <time name="total">   22.64   22.65</time>
   <energy>
    <i name="e_fr_energy">   -207.65142760 </i>
    <i name="e_wo_entrp">   -207.65142760 </i>
    <i name="e_0_energy">   -207.65142760 </i>
   </energy>
  </scstep>
  <scstep>
   <time name="dav">   20.48   20.49</time>
   <time name="total">   22.60   22.61</time>
   <energy>
    <i name="e_fr_energy">   -207.65142760 </i>
    <i name="e_wo_entrp">   -207.65142760 </i>
    <i name="e_0_energy">   -207.65142760 </i>
   </energy>
  </scstep>
  <scstep>
   <time name="dav">   20.52   20.52</time>
   <time name="total">   21.34   21.34</time>
   <energy>
    <i name="alphaZ">   1433.04682846 </i>
    <i name="ewald"> -30513.45198327 </i>
    <i name="hartreedc"> -10922.41516459 </i>
    <i name="XCdc">   1259.14790479 </i>
    <i name="pawpsdc">  36876.84536770 </i>
    <i name="pawaedc"> -36279.49443381 </i>
    <i name="eentropy">     -0.00000000 </i>
    <i name="bandstr">  -2402.98179277 </i>
    <i name="atom">  40341.65184589 </i>
    <i name="e_fr_energy">   -207.65142760 </i>
    <i name="e_wo_entrp">   -207.65142760 </i>
    <i name="e_0_energy">   -207.65142760 </i>
   </energy>
  </scstep>
  <structure>
   <crystal>
    <varray name="basis" >
     <v>       7.64415507       0.00000000       0.00000000 </v>
     <v>       0.00000000       7.64415507       0.00000000 </v>
     <v>       0.00000000       0.00000000      12.06338426 </v>
    </varray>
    <i name="volume">    704.90102057 </i>
    <varray name="rec_basis" >
     <v>       0.13081891       0.00000000       0.00000000 </v>
     <v>       0.00000000       0.13081891       0.00000000 </v>
     <v>       0.00000000       0.00000000       0.08289548 </v>
    </varray>
   </crystal>
   <varray name="positions" >
    <v>       0.24872759       0.24872759       0.85775080 </v>
    <v>       0.75127241       0.24872759       0.85775080 </v>
    <v>       0.24872759       0.75127241       0.85775080 </v>
    <v>       0.75127241       0.75127241       0.85775080 </v>
    <v>       0.00000000       0.00000000       0.64311026 </v>
    <v>       0.50000000       0.00000000       0.64400049 </v>
    <v>       0.00000000       0.50000000       0.64400049 </v>
    <v>       0.50000000       0.50000000       0.64497250 </v>
    <v>       0.00000000       0.00000000       0.35688974 </v>
    <v>       0.50000000       0.00000000       0.35599951 </v>
    <v>       0.00000000       0.50000000       0.35599951 </v>
    <v>       0.50000000       0.50000000       0.35502750 </v>
    <v>       0.24872759       0.24872759       0.14224920 </v>
    <v>       0.75127241       0.24872759       0.14224920 </v>
    <v>       0.24872759       0.75127241       0.14224920 </v>
    <v>       0.75127241       0.75127241       0.14224920 </v>
    <v>       0.50000000       0.00000000       1.00000000 </v>
    <v>       0.00000000       0.50000000       0.00000000 </v>
    <v>       0.50000000       0.50000000       1.00000000 </v>
    <v>       0.25043559       0.25043559       0.50000000 </v>
    <v>       0.74956441       0.25043559       0.50000000 </v>
    <v>       0.25043559       0.74956441       0.50000000 </v>
    <v>       0.74956441       0.74956441       0.50000000 </v>
    <v>       0.00000000       0.24940972       0.75027413 </v>
    <v>       0.50000000       0.24954252       0.75154682 </v>
    <v>       0.00000000       0.75059028       0.75027413 </v>
    <v>       0.50000000       0.75045748       0.75154682 </v>
    <v>       0.24940972       0.00000000       0.75027413 </v>
    <v>       0.75059028       0.00000000       0.75027413 </v>
    <v>       0.24954252       0.50000000       0.75154682 </v>
    <v>       0.75045748       0.50000000       0.75154682 </v>
    <v>       0.24940972       0.00000000       0.24972587 </v>
    <v>       0.75059028       0.00000000       0.24972587 </v>
    <v>       0.24954252       0.50000000       0.24845318 </v>
    <v>       0.75045748       0.50000000       0.24845318 </v>
    <v>       0.00000000       0.24940972       0.24972587 </v>
    <v>       0.50000000       0.24954252       0.24845318 </v>
    <v>       0.00000000       0.75059028       0.24972587 </v>
    <v>       0.50000000       0.75045748       0.24845318 </v>
    <v>       0.00000000       0.00000000       0.00000000 </v>
   </varray>
  </structure>
  <varray name="forces" >
   <v>       0.00000050       0.00000050      -0.00000465 </v>
   <v>      -0.00000050       0.00000050      -0.00000465 </v>
   <v>       0.00000050      -0.00000050      -0.00000465 </v>
   <v>      -0.00000050      -0.00000050      -0.00000465 </v>
   <v>      -0.00000000      -0.00000000       0.00000523 </v>
[...]
       <r>    6.9097    1.0000 </r>
       <r>    6.9302    1.0000 </r>
       <r>    9.0382    0.0000 </r>
       <r>    9.0743    0.0000 </r>
       <r>    9.0743    0.0000 </r>
       <r>    9.1088    0.0000 </r>
       <r>    9.8511    0.0000 </r>
       <r>    9.8842    0.0000 </r>
       <r>    9.8842    0.0000 </r>
       <r>    9.9146    0.0000 </r>
       <r>   10.1885    0.0000 </r>
       <r>   10.1984    0.0000 </r>
       <r>   10.2184    0.0000 </r>
       <r>   10.2184    0.0000 </r>
       <r>   10.5220    0.0000 </r>
       <r>   10.5438    0.0000 </r>
       <r>   10.5659    0.0000 </r>
       <r>   10.5659    0.0000 </r>
       <r>   10.9610    0.0000 </r>
       <r>   10.9610    0.0000 </r>
       <r>   10.9956    0.0000 </r>
       <r>   11.0265    0.0000 </r>
       <r>   11.0574    0.0000 </r>
       <r>   11.0842    0.0000 </r>
       <r>   11.0842    0.0000 </r>
       <r>   11.1149    0.0000 </r>
       <r>   11.9814    0.0000 </r>
       <r>   11.9814    0.0000 </r>
       <r>   12.0025    0.0000 </r>
       <r>   12.0092    0.0000 </r>
       <r>   12.1333    0.0000 </r>
       <r>   12.1333    0.0000 </r>
       <r>   12.1343    0.0000 </r>
       <r>   12.1546    0.0000 </r>
       <r>   12.6222    0.0000 </r>
       <r>   12.6627    0.0000 </r>
       <r>   12.6627    0.0000 </r>
       <r>   12.6819    0.0000 </r>
       <r>   12.7139    0.0000 </r>
       <r>   12.7139    0.0000 </r>
       <r>   12.7960    0.0000 </r>
       <r>   12.8025    0.0000 </r>
      </set>
     </set>
    </set>
   </array>
  </eigenvalues>
  <separator name="orbital magnetization" >
   <v name="MAGDIPOLOUT">      0.00000000      0.00000000      0.00000000</v>
  </separator>
  <dos>
   <i name="efermi">      7.36066103 </i>
   <total>
    <array>
     <dimension dim="1">gridpoints</dimension>
     <dimension dim="2">spin</dimension>
     <field>energy</field>
     <field>total</field>
     <field>integrated</field>
     <set>
      <set comment="spin 1">
       <r>   -17.2747     0.0000     0.0000 </r>
       <r>   -17.1686     0.0000     0.0000 </r>
       <r>   -17.0624     0.0000     0.0000 </r>
       <r>   -16.9563     0.0000     0.0000 </r>
       <r>   -16.8502     0.0000     0.0000 </r>
       <r>   -16.7440     0.0000     0.0000 </r>
       <r>   -16.6379     0.0000     0.0000 </r>
       <r>   -16.5318     0.0000     0.0000 </r>
       <r>   -16.4257     0.0000     0.0000 </r>
       <r>   -16.3195     0.0000     0.0000 </r>
       <r>   -16.2134     0.0000     0.0000 </r>
       <r>   -16.1073     0.0000     0.0000 </r>
       <r>   -16.0011     0.0000     0.0000 </r>
       <r>   -15.8950     0.7481     0.0794 </r>
       <r>   -15.7889   103.7080    11.0859 </r>
       <r>   -15.6827   144.4735    26.4188 </r>
       <r>   -15.5766   449.4840    74.1224 </r>
       <r>   -15.4705   765.5958   155.3748 </r>
       <r>   -15.3644    43.5761   159.9996 </r>
       <r>   -15.2582     0.0042   160.0000 </r>
       <r>   -15.1521     0.0000   160.0000 </r>
       <r>   -15.0460     0.0000   160.0000 </r>
       <r>   -14.9398     0.0000   160.0000 </r>
       <r>   -14.8337     0.0000   160.0000 </r>
       <r>   -14.7276     0.0000   160.0000 </r>
       <r>   -14.6214     0.0000   160.0000 </r>
       <r>   -14.5153     0.0000   160.0000 </r>
       <r>   -14.4092     0.0000   160.0000 </r>
       <r>   -14.3031     0.0000   160.0000 </r>
       <r>   -14.1969     0.0000   160.0000 </r>
       <r>   -14.0908     0.0000   160.0000 </r>
       <r>   -13.9847     0.0000   160.0000 </r>
       <r>   -13.8785     0.0000   160.0000 </r>
       <r>   -13.7724     0.0000   160.0000 </r>
       <r>   -13.6663     0.0000   160.0000 </r>
       <r>   -13.5602     0.0000   160.0000 </r>
       <r>   -13.4540     0.0000   160.0000 </r>
       <r>   -13.3479     0.0000   160.0000 </r>
       <r>   -13.2418     0.0000   160.0000 </r>
       <r>   -13.1356     0.0000   160.0000 </r>
       <r>   -13.0295     0.0000   160.0000 </r>
       <r>   -12.9234     0.0000   160.0000 </r>
       <r>   -12.8172     0.0000   160.0000 </r>
       <r>   -12.7111     0.0000   160.0000 </r>
       <r>   -12.6050     0.0010   160.0001 </r>
       <r>   -12.4989     0.7917   160.0841 </r>
       <r>   -12.3927     3.6807   160.4748 </r>
       <r>   -12.2866     8.7745   161.4060 </r>
       <r>   -12.1805     7.7207   162.2254 </r>
       <r>   -12.0743     1.6574   162.4013 </r>
       <r>   -11.9682    11.1331   163.5828 </r>
       <r>   -11.8621    15.1234   165.1879 </r>
       <r>   -11.7559     0.6340   165.2552 </r>
       <r>   -11.6498     5.0174   165.7877 </r>
       <r>   -11.5437    10.1713   166.8671 </r>
       <r>   -11.4376    19.0506   168.8890 </r>
       <r>   -11.3314     3.7221   169.2840 </r>
       <r>   -11.2253    13.9562   170.7652 </r>
       <r>   -11.1192     4.5681   171.2500 </r>
       <r>   -11.0130     4.4362   171.7208 </r>
       <r>   -10.9069    30.1881   174.9246 </r>
       <r>   -10.8008    15.7262   176.5937 </r>
       <r>   -10.6946    12.5419   177.9247 </r>
       <r>   -10.5885    16.2900   179.6536 </r>
       <r>   -10.4824    21.2430   181.9081 </r>
       <r>   -10.3763    35.6544   185.6921 </r>
       <r>   -10.2701     1.1866   185.8180 </r>
       <r>   -10.1640     9.2506   186.7998 </r>
       <r>   -10.0579    23.8082   189.3265 </r>
       <r>    -9.9517     5.1098   189.8688 </r>
       <r>    -9.8456    13.1175   191.2610 </r>
       <r>    -9.7395     6.6022   191.9617 </r>
       <r>    -9.6334     0.3610   192.0000 </r>
       <r>    -9.5272     0.0001   192.0000 </r>
       <r>    -9.4211     0.0000   192.0000 </r>
       <r>    -9.3150     0.0000   192.0000 </r>
       <r>    -9.2088     0.0000   192.0000 </r>
       <r>    -9.1027     0.0000   192.0000 </r>
       <r>    -8.9966     0.0000   192.0000 </r>
       <r>    -8.8904     0.0000   192.0000 </r>
       <r>    -8.7843     0.0000   192.0000 </r>
       <r>    -8.6782     0.0000   192.0000 </r>
       <r>    -8.5721     0.0000   192.0000 </r>
       <r>    -8.4659     0.0000   192.0000 </r>
       <r>    -8.3598     0.0000   192.0000 </r>
       <r>    -8.2537     0.0000   192.0000 </r>
       <r>    -8.1475     0.0000   192.0000 </r>
       <r>    -8.0414     0.0000   192.0000 </r>
       <r>    -7.9353     0.0000   192.0000 </r>
       <r>    -7.8291     0.0000   192.0000 </r>
       <r>    -7.7230     0.0000   192.0000 </r>
       <r>    -7.6169     0.0000   192.0000 </r>
       <r>    -7.5108     0.0000   192.0000 </r>
       <r>    -7.4046     0.0000   192.0000 </r>
       <r>    -7.2985     0.0000   192.0000 </r>
       <r>    -7.1924     0.0000   192.0000 </r>
       <r>    -7.0862     0.0000   192.0000 </r>
       <r>    -6.9801     0.0000   192.0000 </r>
       <r>    -6.8740     0.0000   192.0000 </r>
       <r>    -6.7679     0.0000   192.0000 </r>
       <r>    -6.6617     0.0000   192.0000 </r>
       <r>    -6.5556     0.0000   192.0000 </r>
       <r>    -6.4495     0.0000   192.0000 </r>
       <r>    -6.3433     0.0000   192.0000 </r>
       <r>    -6.2372     0.0000   192.0000 </r>
       <r>    -6.1311     0.0027   192.0003 </r>
       <r>    -6.0249     0.2774   192.0297 </r>
       <r>    -5.9188     1.3111   192.1689 </r>
       <r>    -5.8127     2.8015   192.4662 </r>
       <r>    -5.7066     3.8249   192.8721 </r>
       <r>    -5.6004     3.0404   193.1948 </r>
       <r>    -5.4943     4.0285   193.6224 </r>
       <r>    -5.3882     9.1972   194.5985 </r>
       <r>    -5.2820     8.4121   195.4912 </r>
       <r>    -5.1759     4.0847   195.9247 </r>
       <r>    -5.0698     7.5605   196.7271 </r>
       <r>    -4.9636     7.5115   197.5243 </r>
       <r>    -4.8575     9.5143   198.5341 </r>
       <r>    -4.7514     9.2140   199.5120 </r>
       <r>    -4.6453     8.4427   200.4080 </r>
       <r>    -4.5391    12.7023   201.7561 </r>
       <r>    -4.4330    11.5004   202.9766 </r>
       <r>    -4.3269     8.5989   203.8892 </r>
       <r>    -4.2207    15.7983   205.5659 </r>
       <r>    -4.1146     7.2777   206.3382 </r>
       <r>    -4.0085     7.4796   207.1321 </r>
       <r>    -3.9024     5.9704   207.7657 </r>
       <r>    -3.7962     6.2810   208.4323 </r>
       <r>    -3.6901    14.4505   209.9659 </r>
       <r>    -3.5840    11.4839   211.1847 </r>
       <r>    -3.4778    25.0754   213.8459 </r>
       <r>    -3.3717    36.1976   217.6876 </r>
       <r>    -3.2656    34.6627   221.3663 </r>
       <r>    -3.1594    15.2873   222.9888 </r>
       <r>    -3.0533    11.7777   224.2387 </r>
       <r>    -2.9472    15.8014   225.9157 </r>
       <r>    -2.8411     8.2999   226.7966 </r>
       <r>    -2.7349    16.4657   228.5441 </r>
       <r>    -2.6288    12.4354   229.8638 </r>
       <r>    -2.5227    14.6416   231.4178 </r>
       <r>    -2.4165     7.0116   232.1619 </r>
       <r>    -2.3104     1.5176   232.3230 </r>
       <r>    -2.2043     7.2298   233.0903 </r>
       <r>    -2.0981     9.3633   234.0840 </r>
       <r>    -1.9920     5.1388   234.6293 </r>
       <r>    -1.8859     1.1355   234.7499 </r>
       <r>    -1.7798     0.7150   234.8257 </r>
       <r>    -1.6736    11.4938   236.0456 </r>
       <r>    -1.5675    10.5819   237.1686 </r>
       <r>    -1.4614     5.3252   237.7338 </r>
       <r>    -1.3552     0.6363   237.8013 </r>
       <r>    -1.2491     2.5953   238.0768 </r>
       <r>    -1.1430     3.5300   238.4514 </r>
       <r>    -1.0368     4.1246   238.8891 </r>
       <r>    -0.9307     3.6173   239.2730 </r>
       <r>    -0.8246     1.3628   239.4177 </r>
       <r>    -0.7185     2.9852   239.7345 </r>
       <r>    -0.6123     1.2994   239.8724 </r>
       <r>    -0.5062     0.1444   239.8877 </r>
       <r>    -0.4001     0.6532   239.9571 </r>
       <r>    -0.2939     0.3314   239.9922 </r>
       <r>    -0.1878     0.0732   240.0000 </r>
       <r>    -0.0817     0.0000   240.0000 </r>
       <r>     0.0244     0.0000   240.0000 </r>
       <r>     0.1306     0.0000   240.0000 </r>
       <r>     0.2367     0.0000   240.0000 </r>
       <r>     0.3428     0.0000   240.0000 </r>
       <r>     0.4490     0.0000   240.0000 </r>
       <r>     0.5551     0.0000   240.0000 </r>
       <r>     0.6612     0.0000   240.0000 </r>
       <r>     0.7674     0.0000   240.0000 </r>
       <r>     0.8735     0.0000   240.0000 </r>
       <r>     0.9796     0.0166   240.0018 </r>
       <r>     1.0857     1.2058   240.1297 </r>
       <r>     1.1919     4.3257   240.5888 </r>
       <r>     1.2980    25.5064   243.2958 </r>
       <r>     1.4041    29.8985   246.4689 </r>
       <r>     1.5103    18.1963   248.4001 </r>
       <r>     1.6164    17.7027   250.2789 </r>
       <r>     1.7225    29.0888   253.3660 </r>
       <r>     1.8287    24.7313   255.9908 </r>
       <r>     1.9348    22.3785   258.3658 </r>
       <r>     2.0409    22.8165   260.7873 </r>
       <r>     2.1470    19.3494   262.8408 </r>
       <r>     2.2532    14.8558   264.4175 </r>
       <r>     2.3593    15.1537   266.0257 </r>
       <r>     2.4654    14.4889   267.5634 </r>
       <r>     2.5716    24.2997   270.1424 </r>
       <r>     2.6777    33.7205   273.7211 </r>
       <r>     2.7838    13.9091   275.1973 </r>
       <r>     2.8899    28.4621   278.2179 </r>
       <r>     2.9961    23.8401   280.7481 </r>
       <r>     3.1022    25.7791   283.4840 </r>
       <r>     3.2083    26.8145   286.3298 </r>
       <r>     3.3145    23.5855   288.8329 </r>
       <r>     3.4206    17.8685   290.7293 </r>
       <r>     3.5267    13.2236   292.1327 </r>
       <r>     3.6329    25.4738   294.8363 </r>
       <r>     3.7390    31.9929   298.2317 </r>
       <r>     3.8451    31.8190   301.6086 </r>
       <r>     3.9512    21.1590   303.8542 </r>
       <r>     4.0574    23.9404   306.3950 </r>
       <r>     4.1635    13.3104   307.8076 </r>
       <r>     4.2696    20.5609   309.9897 </r>
       <r>     4.3758    24.8616   312.6283 </r>
       <r>     4.4819    16.3038   314.3586 </r>
       <r>     4.5880    15.4921   316.0028 </r>
       <r>     4.6942    29.7110   319.1560 </r>
       <r>     4.8003    42.6051   323.6777 </r>
       <r>     4.9064    19.3126   325.7273 </r>
       <r>     5.0125    30.2378   328.9364 </r>
       <r>     5.1187    35.6015   332.7148 </r>
       <r>     5.2248    30.1466   335.9143 </r>
       <r>     5.3309    24.4368   338.5077 </r>
       <r>     5.4371    34.9634   342.2184 </r>
       <r>     5.5432    26.2674   345.0061 </r>
       <r>     5.6493    16.7958   346.7887 </r>
       <r>     5.7554     4.8189   347.3001 </r>
       <r>     5.8616    32.7770   350.7787 </r>
       <r>     5.9677    39.7265   354.9949 </r>
       <r>     6.0738    28.9026   358.0623 </r>
       <r>     6.1800    42.9563   362.6212 </r>
       <r>     6.2861    30.6027   365.8691 </r>
       <r>     6.3922    33.5878   369.4337 </r>
       <r>     6.4984    26.8797   372.2865 </r>
       <r>     6.6045    18.4140   374.2408 </r>
       <r>     6.7106    12.4170   375.5586 </r>
       <r>     6.8167    15.9506   377.2514 </r>
       <r>     6.9229    25.3383   379.9405 </r>
       <r>     7.0290    28.7415   382.9909 </r>
       <r>     7.1351     9.3937   383.9878 </r>
       <r>     7.2413     0.1149   384.0000 </r>
       <r>     7.3474     0.0000   384.0000 </r>
       <r>     7.4535     0.0000   384.0000 </r>
       <r>     7.5597     0.0000   384.0000 </r>
       <r>     7.6658     0.0002   384.0000 </r>
       <r>     7.7719     0.1596   384.0170 </r>
       <r>     7.8780     0.2316   384.0415 </r>
       <r>     7.9842     0.0082   384.0424 </r>
       <r>     8.0903     0.9930   384.1478 </r>
       <r>     8.1964     0.5696   384.2083 </r>
       <r>     8.3026     0.0007   384.2083 </r>
       <r>     8.4087     0.0070   384.2091 </r>
       <r>     8.5148     0.6667   384.2798 </r>
       <r>     8.6210     2.6902   384.5653 </r>
       <r>     8.7271     4.2028   385.0114 </r>
       <r>     8.8332     6.0310   385.6515 </r>
       <r>     8.9393     0.1882   385.6714 </r>
       <r>     9.0455     6.5939   386.3712 </r>
       <r>     9.1516     9.8011   387.4114 </r>
       <r>     9.2577     6.9374   388.1477 </r>
       <r>     9.3639    10.0553   389.2148 </r>
       <r>     9.4700     4.5274   389.6953 </r>
       <r>     9.5761    11.3943   390.9046 </r>
       <r>     9.6822     8.3483   391.7906 </r>
       <r>     9.7884    12.8154   393.1507 </r>
       <r>     9.8945    32.6366   396.6144 </r>
       <r>    10.0006    20.2009   398.7583 </r>
       <r>    10.1068    21.2850   401.0173 </r>
       <r>    10.2129    13.4419   402.4439 </r>
       <r>    10.3190    23.5138   404.9394 </r>
       <r>    10.4252    24.3234   407.5208 </r>
       <r>    10.5313    21.8398   409.8387 </r>
       <r>    10.6374    18.5663   411.8091 </r>
       <r>    10.7435    32.7524   415.2851 </r>
       <r>    10.8497    31.7550   418.6552 </r>
       <r>    10.9558    17.6878   420.5324 </r>
       <r>    11.0619    21.3555   422.7989 </r>
       <r>    11.1681    23.6276   425.3065 </r>
       <r>    11.2742    17.8641   427.2024 </r>
       <r>    11.3803    32.5676   430.6588 </r>
       <r>    11.4865    20.4885   432.8332 </r>
       <r>    11.5926    16.7871   434.6148 </r>
       <r>    11.6987    15.9923   436.3121 </r>
       <r>    11.8048    15.2415   437.9297 </r>
       <r>    11.9110    15.9306   439.6204 </r>
       <r>    12.0171    18.6577   441.6005 </r>
       <r>    12.1232    11.5212   442.8233 </r>
       <r>    12.2294    32.4377   446.2659 </r>
       <r>    12.3355    34.7450   449.9533 </r>
       <r>    12.4416    28.0147   452.9265 </r>
       <r>    12.5477    18.5881   454.8993 </r>
       <r>    12.6539    35.1155   458.6261 </r>
       <r>    12.7600    27.2170   461.5146 </r>
       <r>    12.8661    13.0035   462.8947 </r>
       <r>    12.9723     7.2187   463.6608 </r>
       <r>    13.0784     1.9199   463.8645 </r>
       <r>    13.1845     1.2463   463.9968 </r>
       <r>    13.2907     0.0302   464.0000 </r>
       <r>    13.3968     0.0000   464.0000 </r>
       <r>    13.5029     0.0000   464.0000 </r>
       <r>    13.6090     0.0000   464.0000 </r>
       <r>    13.7152     0.0000   464.0000 </r>
       <r>    13.8213     0.0000   464.0000 </r>
       <r>    13.9274     0.0000   464.0000 </r>
       <r>    14.0336     0.0000   464.0000 </r>
       <r>    14.1397     0.0000   464.0000 </r>
       <r>    14.2458     0.0000   464.0000 </r>
       <r>    14.3520     0.0000   464.0000 </r>
       <r>    14.4581     0.0000   464.0000 </r>
       <r>    14.5642     0.0000   464.0000 </r>
      </set>
     </set>
    </array>
   </total>
  </dos>
 </calculation>
 <structure name="finalpos" >
  <crystal>
   <varray name="basis" >
    <v>       7.64415507       0.00000000       0.00000000 </v>
    <v>       0.00000000       7.64415507       0.00000000 </v>
    <v>       0.00000000       0.00000000      12.06338426 </v>
   </varray>
   <i name="volume">    704.90102057 </i>
   <varray name="rec_basis" >
    <v>       0.13081891       0.00000000       0.00000000 </v>
    <v>       0.00000000       0.13081891       0.00000000 </v>
    <v>       0.00000000       0.00000000       0.08289548 </v>
   </varray>
  </crystal>
  <varray name="positions" >
   <v>       0.24872758       0.24872758       0.85775081 </v>
   <v>       0.75127242       0.24872758       0.85775081 </v>
   <v>       0.24872758       0.75127242       0.85775081 </v>
   <v>       0.75127242       0.75127242       0.85775081 </v>
   <v>       0.00000000       0.00000000       0.64311028 </v>
   <v>       0.50000000       0.00000000       0.64400054 </v>
   <v>       0.00000000       0.50000000       0.64400054 </v>
   <v>       0.50000000       0.50000000       0.64497260 </v>
   <v>       0.00000000       0.00000000       0.35688972 </v>
   <v>       0.50000000       0.00000000       0.35599946 </v>
   <v>       0.00000000       0.50000000       0.35599946 </v>
   <v>       0.50000000       0.50000000       0.35502740 </v>
   <v>       0.24872758       0.24872758       0.14224919 </v>
   <v>       0.75127242       0.24872758       0.14224919 </v>
   <v>       0.24872758       0.75127242       0.14224919 </v>
   <v>       0.75127242       0.75127242       0.14224919 </v>
   <v>       0.50000000       0.00000000       0.00000000 </v>
   <v>       0.00000000       0.50000000       0.00000000 </v>
   <v>       0.50000000       0.50000000       0.00000000 </v>
   <v>       0.25043563       0.25043563       0.50000000 </v>
   <v>       0.74956437       0.25043563       0.50000000 </v>
   <v>       0.25043563       0.74956437       0.50000000 </v>
   <v>       0.74956437       0.74956437       0.50000000 </v>
   <v>       0.00000000       0.24940976       0.75027415 </v>
   <v>       0.50000000       0.24954253       0.75154685 </v>
   <v>       0.00000000       0.75059024       0.75027415 </v>
   <v>       0.50000000       0.75045747       0.75154685 </v>
   <v>       0.24940976       0.00000000       0.75027415 </v>
   <v>       0.75059024       0.00000000       0.75027415 </v>
   <v>       0.24954253       0.50000000       0.75154685 </v>
   <v>       0.75045747       0.50000000       0.75154685 </v>
   <v>       0.24940976       0.00000000       0.24972585 </v>
   <v>       0.75059024       0.00000000       0.24972585 </v>
   <v>       0.24954253       0.50000000       0.24845315 </v>
   <v>       0.75045747       0.50000000       0.24845315 </v>
   <v>       0.00000000       0.24940976       0.24972585 </v>
   <v>       0.50000000       0.24954253       0.24845315 </v>
   <v>       0.00000000       0.75059024       0.24972585 </v>
   <v>       0.50000000       0.75045747       0.24845315 </v>
   <v>       0.00000000       0.00000000       0.00000000 </v>
  </varray>
 </structure>
</modeling>
