unknown system                          
           1
     7.644155    0.000000    0.000000
     0.000000    7.644155    0.000000
     0.000000    0.000000   12.063384
   Bi   Se   O    S 
    16     7    16     1
Direct configuration=     1
   0.24872761  0.24872761  0.85775074
   0.75127239  0.24872761  0.85775074
   0.24872761  0.75127239  0.85775074
   0.75127239  0.75127239  0.85775074
   0.00000000  0.00000000  0.64311026
   0.50000000  0.00000000  0.64400048
   0.00000000  0.50000000  0.64400048
   0.50000000  0.50000000  0.64497248
   0.00000000  0.00000000  0.35688974
   0.50000000  0.00000000  0.35599952
   0.00000000  0.50000000  0.35599952
   0.50000000  0.50000000  0.35502752
   0.24872761  0.24872761  0.14224926
   0.75127239  0.24872761  0.14224926
   0.24872761  0.75127239  0.14224926
   0.75127239  0.75127239  0.14224926
   0.50000000  0.00000000  0.00000000
   0.00000000  0.50000000  0.00000000
   0.50000000  0.50000000  0.00000000
   0.25043556  0.25043556  0.50000000
   0.74956444  0.25043556  0.50000000
   0.25043556  0.74956444  0.50000000
   0.74956444  0.74956444  0.50000000
   0.00000000  0.24940968  0.75027413
   0.50000000  0.24954250  0.75154683
   0.00000000  0.75059032  0.75027413
   0.50000000  0.75045750  0.75154683
   0.24940968  0.00000000  0.75027413
   0.75059032  0.00000000  0.75027413
   0.24954250  0.50000000  0.75154683
   0.75045750  0.50000000  0.75154683
   0.24940968  0.00000000  0.24972587
   0.75059032  0.00000000  0.24972587
   0.24954250  0.50000000  0.24845317
   0.75045750  0.50000000  0.24845317
   0.00000000  0.24940968  0.24972587
   0.50000000  0.24954250  0.24845317
   0.00000000  0.75059032  0.24972587
   0.50000000  0.75045750  0.24845317
   0.00000000  0.00000000  0.00000000
Direct configuration=     2
   0.24872757  0.24872757  0.85775083
   0.75127243  0.24872757  0.85775083
   0.24872757  0.75127243  0.85775083
   0.75127243  0.75127243  0.85775083
   0.00000000  0.00000000  0.64311026
   0.50000000  0.00000000  0.64400049
   0.00000000  0.50000000  0.64400049
   0.50000000  0.50000000  0.64497252
   0.00000000  0.00000000  0.35688974
   0.50000000  0.00000000  0.35599951
   0.00000000  0.50000000  0.35599951
   0.50000000  0.50000000  0.35502748
   0.24872757  0.24872757  0.14224917
   0.75127243  0.24872757  0.14224917
   0.24872757  0.75127243  0.14224917
   0.75127243  0.75127243  0.14224917
   0.50000000  0.00000000  1.00000000
   0.00000000  0.50000000  0.00000000
   0.50000000  0.50000000  1.00000000
   0.25043561  0.25043561  0.50000000
   0.74956439  0.25043561  0.50000000
   0.25043561  0.74956439  0.50000000
   0.74956439  0.74956439  0.50000000
   0.00000000  0.24940974  0.75027413
   0.50000000  0.24954253  0.75154682
   0.00000000  0.75059026  0.75027413
   0.50000000  0.75045747  0.75154682
   0.24940974  0.00000000  0.75027413
   0.75059026  0.00000000  0.75027413
   0.24954253  0.50000000  0.75154682
   0.75045747  0.50000000  0.75154682
   0.24940974  0.00000000  0.24972587
   0.75059026  0.00000000  0.24972587
   0.24954253  0.50000000  0.24845318
   0.75045747  0.50000000  0.24845318
   0.00000000  0.24940974  0.24972587
   0.50000000  0.24954253  0.24845318
   0.00000000  0.75059026  0.24972587
   0.50000000  0.75045747  0.24845318
   0.00000000  0.00000000  0.00000000
Direct configuration=     3
   0.24872759  0.24872759  0.85775078
   0.75127241  0.24872759  0.85775078
   0.24872759  0.75127241  0.85775078
   0.75127241  0.75127241  0.85775078
   0.00000000  0.00000000  0.64311026
   0.50000000  0.00000000  0.64400048
   0.00000000  0.50000000  0.64400048
   0.50000000  0.50000000  0.64497250
   0.00000000  0.00000000  0.35688974
   0.50000000  0.00000000  0.35599952
   0.00000000  0.50000000  0.35599952
   0.50000000  0.50000000  0.35502750
   0.24872759  0.24872759  0.14224922
   0.75127241  0.24872759  0.14224922
   0.24872759  0.75127241  0.14224922
   0.75127241  0.75127241  0.14224922
   0.50000000  0.00000000  0.00000000
   0.00000000  0.50000000  0.00000000
   0.50000000  0.50000000  0.00000000
   0.25043558  0.25043558  0.50000000
   0.74956442  0.25043558  0.50000000
   0.25043558  0.74956442  0.50000000
   0.74956442  0.74956442  0.50000000
   0.00000000  0.24940971  0.75027413
   0.50000000  0.24954251  0.75154683
   0.00000000  0.75059029  0.75027413
   0.50000000  0.75045749  0.75154683
   0.24940971  0.00000000  0.75027413
   0.75059029  0.00000000  0.75027413
   0.24954251  0.50000000  0.75154683
   0.75045749  0.50000000  0.75154683
   0.24940971  0.00000000  0.24972587
   0.75059029  0.00000000  0.24972587
   0.24954251  0.50000000  0.24845317
   0.75045749  0.50000000  0.24845317
   0.00000000  0.24940971  0.24972587
   0.50000000  0.24954251  0.24845317
   0.00000000  0.75059029  0.24972587
   0.50000000  0.75045749  0.24845317
   0.00000000  0.00000000  0.00000000
Direct configuration=     4
   0.24872759  0.24872759  0.85775080
   0.75127241  0.24872759  0.85775080
   0.24872759  0.75127241  0.85775080
   0.75127241  0.75127241  0.85775080
   0.00000000  0.00000000  0.64311026
   0.50000000  0.00000000  0.64400049
   0.00000000  0.50000000  0.64400049
   0.50000000  0.50000000  0.64497251
   0.00000000  0.00000000  0.35688974
   0.50000000  0.00000000  0.35599951
   0.00000000  0.50000000  0.35599951
   0.50000000  0.50000000  0.35502749
   0.24872759  0.24872759  0.14224920
   0.75127241  0.24872759  0.14224920
   0.24872759  0.75127241  0.14224920
   0.75127241  0.75127241  0.14224920
   0.50000000  0.00000000  1.00000000
   0.00000000  0.50000000  0.00000000
   0.50000000  0.50000000  1.00000000
   0.25043559  0.25043559  0.50000000
   0.74956441  0.25043559  0.50000000
   0.25043559  0.74956441  0.50000000
   0.74956441  0.74956441  0.50000000
   0.00000000  0.24940972  0.75027413
   0.50000000  0.24954252  0.75154682
   0.00000000  0.75059028  0.75027413
   0.50000000  0.75045748  0.75154682
   0.24940972  0.00000000  0.75027413
   0.75059028  0.00000000  0.75027413
   0.24954252  0.50000000  0.75154682
   0.75045748  0.50000000  0.75154682
   0.24940972  0.00000000  0.24972587
   0.75059028  0.00000000  0.24972587
   0.24954252  0.50000000  0.24845318
   0.75045748  0.50000000  0.24845318
   0.00000000  0.24940972  0.24972587
   0.50000000  0.24954252  0.24845318
   0.00000000  0.75059028  0.24972587
   0.50000000  0.75045748  0.24845318
   0.00000000  0.00000000  0.00000000
Direct configuration=     5
   0.24872759  0.24872759  0.85775079
   0.75127241  0.24872759  0.85775079
   0.24872759  0.75127241  0.85775079
   0.75127241  0.75127241  0.85775079
   0.00000000  0.00000000  0.64311026
   0.50000000  0.00000000  0.64400049
   0.00000000  0.50000000  0.64400049
   0.50000000  0.50000000  0.64497250
   0.00000000  0.00000000  0.35688974
   0.50000000  0.00000000  0.35599951
   0.00000000  0.50000000  0.35599951
   0.50000000  0.50000000  0.35502750
   0.24872759  0.24872759  0.14224921
   0.75127241  0.24872759  0.14224921
   0.24872759  0.75127241  0.14224921
   0.75127241  0.75127241  0.14224921
   0.50000000  0.00000000  0.00000000
   0.00000000  0.50000000  0.00000000
   0.50000000  0.50000000  0.00000000
   0.25043559  0.25043559  0.50000000
   0.74956441  0.25043559  0.50000000
   0.25043559  0.74956441  0.50000000
   0.74956441  0.74956441  0.50000000
   0.00000000  0.24940971  0.75027413
   0.50000000  0.24954252  0.75154682
   0.00000000  0.75059029  0.75027413
   0.50000000  0.75045748  0.75154682
   0.24940971  0.00000000  0.75027413
   0.75059029  0.00000000  0.75027413
   0.24954252  0.50000000  0.75154682
   0.75045748  0.50000000  0.75154682
   0.24940971  0.00000000  0.24972587
   0.75059029  0.00000000  0.24972587
   0.24954252  0.50000000  0.24845318
   0.75045748  0.50000000  0.24845318
   0.00000000  0.24940971  0.24972587
   0.50000000  0.24954252  0.24845318
   0.00000000  0.75059029  0.24972587
   0.50000000  0.75045748  0.24845318
   0.00000000  0.00000000  0.00000000
Direct configuration=     6
   0.24872759  0.24872759  0.85775080
   0.75127241  0.24872759  0.85775080
   0.24872759  0.75127241  0.85775080
   0.75127241  0.75127241  0.85775080
   0.00000000  0.00000000  0.64311026
   0.50000000  0.00000000  0.64400049
   0.00000000  0.50000000  0.64400049
   0.50000000  0.50000000  0.64497250
   0.00000000  0.00000000  0.35688974
   0.50000000  0.00000000  0.35599951
   0.00000000  0.50000000  0.35599951
   0.50000000  0.50000000  0.35502750
   0.24872759  0.24872759  0.14224920
   0.75127241  0.24872759  0.14224920
   0.24872759  0.75127241  0.14224920
   0.75127241  0.75127241  0.14224920
   0.50000000  0.00000000  1.00000000
   0.00000000  0.50000000  0.00000000
   0.50000000  0.50000000  1.00000000
   0.25043559  0.25043559  0.50000000
   0.74956441  0.25043559  0.50000000
   0.25043559  0.74956441  0.50000000
   0.74956441  0.74956441  0.50000000
   0.00000000  0.24940972  0.75027413
   0.50000000  0.24954252  0.75154682
   0.00000000  0.75059028  0.75027413
   0.50000000  0.75045748  0.75154682
   0.24940972  0.00000000  0.75027413
   0.75059028  0.00000000  0.75027413
   0.24954252  0.50000000  0.75154682
   0.75045748  0.50000000  0.75154682
   0.24940972  0.00000000  0.24972587
   0.75059028  0.00000000  0.24972587
   0.24954252  0.50000000  0.24845318
   0.75045748  0.50000000  0.24845318
   0.00000000  0.24940972  0.24972587
   0.50000000  0.24954252  0.24845318
   0.00000000  0.75059028  0.24972587
   0.50000000  0.75045748  0.24845318
   0.00000000  0.00000000  0.00000000
Direct configuration=     7
   0.24872758  0.24872758  0.85775081
   0.75127242  0.24872758  0.85775081
   0.24872758  0.75127242  0.85775081
   0.75127242  0.75127242  0.85775081
   0.00000000  0.00000000  0.64311028
   0.50000000  0.00000000  0.64400054
   0.00000000  0.50000000  0.64400054
   0.50000000  0.50000000  0.64497261
   0.00000000  0.00000000  0.35688972
   0.50000000  0.00000000  0.35599946
   0.00000000  0.50000000  0.35599946
   0.50000000  0.50000000  0.35502739
   0.24872758  0.24872758  0.14224919
   0.75127242  0.24872758  0.14224919
   0.24872758  0.75127242  0.14224919
   0.75127242  0.75127242  0.14224919
   0.50000000  0.00000000  0.00000000
   0.00000000  0.50000000  0.00000000
   0.50000000  0.50000000  0.00000000
   0.25043563  0.25043563  0.50000000
   0.74956437  0.25043563  0.50000000
   0.25043563  0.74956437  0.50000000
   0.74956437  0.74956437  0.50000000
   0.00000000  0.24940976  0.75027416
   0.50000000  0.24954253  0.75154685
   0.00000000  0.75059024  0.75027416
   0.50000000  0.75045747  0.75154685
   0.24940976  0.00000000  0.75027416
   0.75059024  0.00000000  0.75027416
   0.24954253  0.50000000  0.75154685
   0.75045747  0.50000000  0.75154685
   0.24940976  0.00000000  0.24972584
   0.75059024  0.00000000  0.24972584
   0.24954253  0.50000000  0.24845315
   0.75045747  0.50000000  0.24845315
   0.00000000  0.24940976  0.24972584
   0.50000000  0.24954253  0.24845315
   0.00000000  0.75059024  0.24972584
   0.50000000  0.75045747  0.24845315
   0.00000000  0.00000000  0.00000000
Direct configuration=     8
   0.24872758  0.24872758  0.85775081
   0.75127242  0.24872758  0.85775081
   0.24872758  0.75127242  0.85775081
   0.75127242  0.75127242  0.85775081
   0.00000000  0.00000000  0.64311027
   0.50000000  0.00000000  0.64400053
   0.00000000  0.50000000  0.64400053
   0.50000000  0.50000000  0.64497258
   0.00000000  0.00000000  0.35688973
   0.50000000  0.00000000  0.35599947
   0.00000000  0.50000000  0.35599947
   0.50000000  0.50000000  0.35502742
   0.24872758  0.24872758  0.14224919
   0.75127242  0.24872758  0.14224919
   0.24872758  0.75127242  0.14224919
   0.75127242  0.75127242  0.14224919
   0.50000000  0.00000000  1.00000000
   0.00000000  0.50000000  0.00000000
   0.50000000  0.50000000  1.00000000
   0.25043562  0.25043562  0.50000000
   0.74956438  0.25043562  0.50000000
   0.25043562  0.74956438  0.50000000
   0.74956438  0.74956438  0.50000000
   0.00000000  0.24940975  0.75027415
   0.50000000  0.24954253  0.75154684
   0.00000000  0.75059025  0.75027415
   0.50000000  0.75045747  0.75154684
   0.24940975  0.00000000  0.75027415
   0.75059025  0.00000000  0.75027415
   0.24954253  0.50000000  0.75154684
   0.75045747  0.50000000  0.75154684
   0.24940975  0.00000000  0.24972585
   0.75059025  0.00000000  0.24972585
   0.24954253  0.50000000  0.24845316
   0.75045747  0.50000000  0.24845316
   0.00000000  0.24940975  0.24972585
   0.50000000  0.24954253  0.24845316
   0.00000000  0.75059025  0.24972585
   0.50000000  0.75045747  0.24845316
   0.00000000  0.00000000  0.00000000
Direct configuration=     9
   0.24872758  0.24872758  0.85775081
   0.75127242  0.24872758  0.85775081
   0.24872758  0.75127242  0.85775081
   0.75127242  0.75127242  0.85775081
   0.00000000  0.00000000  0.64311028
   0.50000000  0.00000000  0.64400054
   0.00000000  0.50000000  0.64400054
   0.50000000  0.50000000  0.64497260
   0.00000000  0.00000000  0.35688972
   0.50000000  0.00000000  0.35599946
   0.00000000  0.50000000  0.35599946
   0.50000000  0.50000000  0.35502740
   0.24872758  0.24872758  0.14224919
   0.75127242  0.24872758  0.14224919
   0.24872758  0.75127242  0.14224919
   0.75127242  0.75127242  0.14224919
   0.50000000  0.00000000  0.00000000
   0.00000000  0.50000000  0.00000000
   0.50000000  0.50000000  0.00000000
   0.25043563  0.25043563  0.50000000
   0.74956437  0.25043563  0.50000000
   0.25043563  0.74956437  0.50000000
   0.74956437  0.74956437  0.50000000
   0.00000000  0.24940976  0.75027415
   0.50000000  0.24954253  0.75154685
   0.00000000  0.75059024  0.75027415
   0.50000000  0.75045747  0.75154685
   0.24940976  0.00000000  0.75027415
   0.75059024  0.00000000  0.75027415
   0.24954253  0.50000000  0.75154685
   0.75045747  0.50000000  0.75154685
   0.24940976  0.00000000  0.24972585
   0.75059024  0.00000000  0.24972585
   0.24954253  0.50000000  0.24845315
   0.75045747  0.50000000  0.24845315
   0.00000000  0.24940976  0.24972585
   0.50000000  0.24954253  0.24845315
   0.00000000  0.75059024  0.24972585
   0.50000000  0.75045747  0.24845315
   0.00000000  0.00000000  0.00000000
