  40  40   0   0
  0.1872939E+02  0.7800958E-09  0.7800958E-09  0.1231084E-08  0.5000000E-15
  1.000000000000000E-004
  CAR 
 unknown system                          
     13.36758896    -18.00651224  301      6.71203093      1.00000000
    -18.007  0.0000E+00  0.0000E+00
    -17.902  0.0000E+00  0.0000E+00
    -17.797  0.0000E+00  0.0000E+00
    -17.693  0.0000E+00  0.0000E+00
    -17.588  0.0000E+00  0.0000E+00
    -17.484  0.0000E+00  0.0000E+00
    -17.379  0.0000E+00  0.0000E+00
    -17.274  0.0000E+00  0.0000E+00
    -17.170  0.0000E+00  0.0000E+00
    -17.065  0.0000E+00  0.0000E+00
    -16.961  0.0000E+00  0.0000E+00
    -16.856  0.2827E-15  0.2956E-16
    -16.752  0.1140E-06  0.1192E-07
    -16.647  0.1343E-01  0.1405E-02
    -16.542  0.1230E+01  0.1300E+00
    -16.438  0.1933E+01  0.3322E+00
    -16.333  0.8572E+01  0.1229E+01
    -16.229  0.3540E+01  0.1599E+01
    -16.124  0.1071E-01  0.1600E+01
    -16.019  0.1733E-07  0.1600E+01
    -15.915  0.0000E+00  0.1600E+01
    -15.810  0.0000E+00  0.1600E+01
    -15.706  0.0000E+00  0.1600E+01
    -15.601  0.0000E+00  0.1600E+01
    -15.497  0.0000E+00  0.1600E+01
    -15.392  0.0000E+00  0.1600E+01
    -15.287  0.0000E+00  0.1600E+01
    -15.183  0.0000E+00  0.1600E+01
    -15.078  0.0000E+00  0.1600E+01
    -14.974  0.0000E+00  0.1600E+01
    -14.869  0.0000E+00  0.1600E+01
    -14.765  0.0000E+00  0.1600E+01
    -14.660  0.0000E+00  0.1600E+01
    -14.555  0.0000E+00  0.1600E+01
    -14.451  0.0000E+00  0.1600E+01
    -14.346  0.0000E+00  0.1600E+01
    -14.242  0.0000E+00  0.1600E+01
    -14.137  0.0000E+00  0.1600E+01
    -14.032  0.0000E+00  0.1600E+01
    -13.928  0.0000E+00  0.1600E+01
    -13.823  0.0000E+00  0.1600E+01
    -13.719  0.0000E+00  0.1600E+01
    -13.614  0.0000E+00  0.1600E+01
    -13.510  0.0000E+00  0.1600E+01
    -13.405  0.0000E+00  0.1600E+01
    -13.300  0.0000E+00  0.1600E+01
    -13.196  0.3344E-15  0.1600E+01
    -13.091  0.3413E-07  0.1600E+01
    -12.987  0.9314E-03  0.1600E+01
    -12.882  0.2368E-01  0.1603E+01
    -12.777  0.8751E-01  0.1612E+01
    -12.673  0.9298E-01  0.1621E+01
    -12.568  0.2108E-01  0.1624E+01
    -12.464  0.1199E+00  0.1636E+01
    -12.359  0.1516E+00  0.1652E+01
    -12.255  0.7367E-02  0.1653E+01
    -12.150  0.7846E-01  0.1661E+01
    -12.045  0.1430E+00  0.1676E+01
    -11.941  0.1553E+00  0.1692E+01
    -11.836  0.7401E-01  0.1700E+01
    -11.732  0.1188E+00  0.1712E+01
    -11.627  0.2468E-01  0.1715E+01
    -11.523  0.3047E+00  0.1747E+01
    -11.418  0.1877E+00  0.1766E+01
    -11.313  0.1664E+00  0.1784E+01
    -11.209  0.1394E+00  0.1798E+01
    -11.104  0.3812E+00  0.1838E+01
    -11.000  0.1835E+00  0.1857E+01
    -10.895  0.5182E-01  0.1863E+01
    -10.790  0.1855E+00  0.1882E+01
    -10.686  0.1473E+00  0.1898E+01
    -10.581  0.1108E+00  0.1909E+01
    -10.477  0.9523E-01  0.1919E+01
    -10.372  0.7021E-02  0.1920E+01
    -10.268  0.4145E-05  0.1920E+01
    -10.163  0.7569E-12  0.1920E+01
    -10.058  0.0000E+00  0.1920E+01
     -9.954  0.0000E+00  0.1920E+01
     -9.849  0.0000E+00  0.1920E+01
     -9.745  0.0000E+00  0.1920E+01
     -9.640  0.0000E+00  0.1920E+01
     -9.536  0.0000E+00  0.1920E+01
     -9.431  0.0000E+00  0.1920E+01
     -9.326  0.0000E+00  0.1920E+01
     -9.222  0.0000E+00  0.1920E+01
     -9.117  0.0000E+00  0.1920E+01
     -9.013  0.0000E+00  0.1920E+01
     -8.908  0.0000E+00  0.1920E+01
     -8.803  0.0000E+00  0.1920E+01
     -8.699  0.0000E+00  0.1920E+01
     -8.594  0.0000E+00  0.1920E+01
     -8.490  0.0000E+00  0.1920E+01
     -8.385  0.0000E+00  0.1920E+01
     -8.281  0.0000E+00  0.1920E+01
     -8.176  0.0000E+00  0.1920E+01
     -8.071  0.0000E+00  0.1920E+01
     -7.967  0.0000E+00  0.1920E+01
     -7.862  0.0000E+00  0.1920E+01
     -7.758  0.0000E+00  0.1920E+01
     -7.653  0.0000E+00  0.1920E+01
     -7.548  0.0000E+00  0.1920E+01
     -7.444  0.0000E+00  0.1920E+01
     -7.339  0.0000E+00  0.1920E+01
     -7.235  0.0000E+00  0.1920E+01
     -7.130  0.0000E+00  0.1920E+01
     -7.026  0.0000E+00  0.1920E+01
     -6.921  0.0000E+00  0.1920E+01
     -6.816  0.0000E+00  0.1920E+01
     -6.712  0.0000E+00  0.1920E+01
     -6.607  0.2212E-18  0.1920E+01
     -6.503  0.1935E-09  0.1920E+01
     -6.398  0.3505E-04  0.1920E+01
     -6.294  0.2969E-02  0.1920E+01
     -6.189  0.1694E-01  0.1922E+01
     -6.084  0.3852E-01  0.1926E+01
     -5.980  0.3899E-01  0.1930E+01
     -5.875  0.2955E-01  0.1933E+01
     -5.771  0.8054E-01  0.1942E+01
     -5.666  0.1079E+00  0.1953E+01
     -5.561  0.5390E-01  0.1959E+01
     -5.457  0.8422E-01  0.1967E+01
     -5.352  0.8375E-01  0.1976E+01
     -5.248  0.1171E+00  0.1988E+01
     -5.143  0.1047E+00  0.1999E+01
     -5.039  0.1133E+00  0.2011E+01
     -4.934  0.1525E+00  0.2027E+01
     -4.829  0.9695E-01  0.2037E+01
     -4.725  0.1821E+00  0.2056E+01
     -4.620  0.8878E-01  0.2066E+01
     -4.516  0.6644E-01  0.2073E+01
     -4.411  0.1054E+00  0.2084E+01
     -4.306  0.1455E+00  0.2099E+01
     -4.202  0.1545E+00  0.2115E+01
     -4.097  0.2907E+00  0.2145E+01
     -3.993  0.4175E+00  0.2189E+01
     -3.888  0.3219E+00  0.2223E+01
     -3.784  0.1698E+00  0.2240E+01
     -3.679  0.1425E+00  0.2255E+01
     -3.574  0.9117E-01  0.2265E+01
     -3.470  0.1971E+00  0.2286E+01
     -3.365  0.1418E+00  0.2300E+01
     -3.261  0.1232E+00  0.2313E+01
     -3.156  0.7234E-01  0.2321E+01
     -3.052  0.5551E-01  0.2327E+01
     -2.947  0.8849E-01  0.2336E+01
     -2.842  0.8794E-01  0.2345E+01
     -2.738  0.2317E-01  0.2347E+01
     -2.633  0.1160E-03  0.2348E+01
     -2.529  0.4906E-01  0.2353E+01
     -2.424  0.1448E+00  0.2368E+01
     -2.319  0.8479E-01  0.2377E+01
     -2.215  0.1080E-01  0.2378E+01
     -2.110  0.2166E-01  0.2380E+01
     -2.006  0.4070E-01  0.2384E+01
     -1.901  0.4667E-01  0.2389E+01
     -1.797  0.3533E-01  0.2393E+01
     -1.692  0.2351E-01  0.2395E+01
     -1.587  0.2729E-01  0.2398E+01
     -1.483  0.5738E-02  0.2399E+01
     -1.378  0.6840E-02  0.2400E+01
     -1.274  0.3893E-02  0.2400E+01
     -1.169  0.8764E-03  0.2400E+01
     -1.064  0.3814E-06  0.2400E+01
     -0.960  0.4506E-13  0.2400E+01
     -0.855  0.0000E+00  0.2400E+01
     -0.751  0.0000E+00  0.2400E+01
     -0.646  0.0000E+00  0.2400E+01
     -0.542  0.0000E+00  0.2400E+01
     -0.437  0.0000E+00  0.2400E+01
     -0.332  0.0000E+00  0.2400E+01
     -0.228  0.0000E+00  0.2400E+01
     -0.123  0.0000E+00  0.2400E+01
     -0.019  0.0000E+00  0.2400E+01
      0.086  0.0000E+00  0.2400E+01
      0.190  0.0000E+00  0.2400E+01
      0.295  0.9466E-16  0.2400E+01
      0.400  0.1267E-07  0.2400E+01
      0.504  0.4450E-03  0.2400E+01
      0.609  0.1737E-01  0.2402E+01
      0.713  0.4876E-01  0.2407E+01
      0.818  0.2726E+00  0.2435E+01
      0.923  0.2570E+00  0.2462E+01
      1.027  0.3112E+00  0.2495E+01
      1.132  0.2681E+00  0.2523E+01
      1.236  0.2412E+00  0.2548E+01
      1.341  0.1524E+00  0.2564E+01
      1.445  0.2491E+00  0.2590E+01
      1.550  0.3078E+00  0.2622E+01
      1.655  0.1287E+00  0.2636E+01
      1.759  0.1052E+00  0.2647E+01
      1.864  0.1956E+00  0.2667E+01
      1.968  0.3004E+00  0.2699E+01
      2.073  0.1425E+00  0.2714E+01
      2.177  0.2149E+00  0.2736E+01
      2.282  0.1711E+00  0.2754E+01
      2.387  0.3044E+00  0.2786E+01
      2.491  0.3654E+00  0.2824E+01
      2.596  0.2787E+00  0.2853E+01
      2.700  0.2653E+00  0.2881E+01
      2.805  0.1575E+00  0.2897E+01
      2.910  0.2198E+00  0.2920E+01
      3.014  0.2626E+00  0.2948E+01
      3.119  0.4142E+00  0.2991E+01
      3.223  0.3304E+00  0.3026E+01
      3.328  0.1245E+00  0.3039E+01
      3.432  0.2611E+00  0.3066E+01
      3.537  0.1666E+00  0.3083E+01
      3.642  0.2438E+00  0.3109E+01
      3.746  0.1314E+00  0.3123E+01
      3.851  0.2709E+00  0.3151E+01
      3.955  0.3659E+00  0.3189E+01
      4.060  0.3946E+00  0.3231E+01
      4.165  0.1522E+00  0.3246E+01
      4.269  0.3162E+00  0.3280E+01
      4.374  0.3324E+00  0.3314E+01
      4.478  0.2291E+00  0.3338E+01
      4.583  0.2051E+00  0.3360E+01
      4.687  0.3725E+00  0.3399E+01
      4.792  0.2104E+00  0.3421E+01
      4.897  0.1616E+00  0.3438E+01
      5.001  0.1661E+00  0.3455E+01
      5.106  0.1454E+00  0.3470E+01
      5.210  0.8062E-01  0.3479E+01
      5.315  0.4265E+00  0.3523E+01
      5.419  0.4175E+00  0.3567E+01
      5.524  0.4765E+00  0.3617E+01
      5.629  0.4937E+00  0.3668E+01
      5.733  0.2677E+00  0.3696E+01
      5.838  0.2526E+00  0.3723E+01
      5.942  0.2522E+00  0.3749E+01
      6.047  0.1564E+00  0.3765E+01
      6.152  0.2820E+00  0.3795E+01
      6.256  0.2676E+00  0.3823E+01
      6.361  0.1046E+00  0.3834E+01
      6.465  0.4538E-01  0.3839E+01
      6.570  0.1354E-01  0.3840E+01
      6.674  0.5826E-04  0.3840E+01
      6.779  0.2487E-07  0.3840E+01
      6.884  0.3148E-03  0.3840E+01
      6.988  0.3426E-02  0.3840E+01
      7.093  0.3317E-03  0.3840E+01
      7.197  0.5880E-02  0.3841E+01
      7.302  0.2429E-02  0.3841E+01
      7.407  0.6837E-02  0.3842E+01
      7.511  0.3254E-02  0.3842E+01
      7.616  0.7568E-02  0.3843E+01
      7.720  0.8845E-02  0.3844E+01
      7.825  0.2255E-01  0.3846E+01
      7.929  0.5022E-01  0.3852E+01
      8.034  0.3897E-01  0.3856E+01
      8.139  0.4391E-01  0.3860E+01
      8.243  0.7888E-01  0.3869E+01
      8.348  0.8144E-01  0.3877E+01
      8.452  0.1153E+00  0.3889E+01
      8.557  0.5960E-01  0.3895E+01
      8.661  0.8907E-01  0.3905E+01
      8.766  0.1035E+00  0.3916E+01
      8.871  0.6016E-01  0.3922E+01
      8.975  0.2961E+00  0.3953E+01
      9.080  0.2439E+00  0.3978E+01
      9.184  0.2391E+00  0.4003E+01
      9.289  0.1836E+00  0.4023E+01
      9.394  0.2376E+00  0.4047E+01
      9.498  0.2607E+00  0.4075E+01
      9.603  0.2014E+00  0.4096E+01
      9.707  0.1934E+00  0.4116E+01
      9.812  0.2584E+00  0.4143E+01
      9.916  0.2998E+00  0.4174E+01
     10.021  0.2529E+00  0.4201E+01
     10.126  0.2050E+00  0.4222E+01
     10.230  0.2710E+00  0.4251E+01
     10.335  0.2478E+00  0.4276E+01
     10.439  0.3166E+00  0.4310E+01
     10.544  0.2211E+00  0.4333E+01
     10.649  0.2442E+00  0.4358E+01
     10.753  0.1856E+00  0.4378E+01
     10.858  0.1616E+00  0.4394E+01
     10.962  0.1522E+00  0.4410E+01
     11.067  0.1975E+00  0.4431E+01
     11.171  0.2056E+00  0.4453E+01
     11.276  0.2689E+00  0.4481E+01
     11.381  0.3668E+00  0.4519E+01
     11.485  0.3433E+00  0.4555E+01
     11.590  0.3224E+00  0.4589E+01
     11.694  0.3179E+00  0.4622E+01
     11.799  0.1253E+00  0.4635E+01
     11.903  0.2708E-01  0.4638E+01
     12.008  0.2017E-01  0.4640E+01
     12.113  0.2940E-03  0.4640E+01
     12.217  0.5251E-08  0.4640E+01
     12.322  0.2477E-16  0.4640E+01
     12.426  0.0000E+00  0.4640E+01
     12.531  0.0000E+00  0.4640E+01
     12.636  0.0000E+00  0.4640E+01
     12.740  0.0000E+00  0.4640E+01
     12.845  0.0000E+00  0.4640E+01
     12.949  0.0000E+00  0.4640E+01
     13.054  0.0000E+00  0.4640E+01
     13.158  0.0000E+00  0.4640E+01
     13.263  0.0000E+00  0.4640E+01
     13.368  0.0000E+00  0.4640E+01
