       N       E                     dE             d eps       ncg     rms          rms(c)
DAV:   1     0.566569142871E+04    0.56657E+04   -0.17515E+05  5568   0.198E+03
DAV:   2     0.974550025426E+03   -0.46911E+04   -0.45524E+04  5576   0.573E+02
DAV:   3    -0.109095565489E+03   -0.10836E+04   -0.10098E+04  6208   0.262E+02
DAV:   4    -0.237159755704E+03   -0.12806E+03   -0.12411E+03  6688   0.825E+01
DAV:   5    -0.243072230968E+03   -0.59125E+01   -0.58337E+01  6656   0.171E+01    0.342E+01
DAV:   6    -0.208833247186E+03    0.34239E+02   -0.14474E+02  7736   0.491E+01    0.135E+01
DAV:   7    -0.208755918475E+03    0.77329E-01   -0.29381E+01  6152   0.115E+01    0.814E+00
DAV:   8    -0.208896408186E+03   -0.14049E+00   -0.59365E+00  8072   0.493E+00    0.354E+00
DAV:   9    -0.208814486111E+03    0.81922E-01   -0.61893E-01  7440   0.256E+00    0.147E+00
DAV:  10    -0.208803430174E+03    0.11056E-01   -0.17280E-01  6976   0.137E+00    0.371E-01
DAV:  11    -0.208805692486E+03   -0.22623E-02   -0.21862E-02  7176   0.307E-01    0.330E-01
DAV:  12    -0.208806579647E+03   -0.88716E-03   -0.79619E-03  7760   0.201E-01    0.170E-01
DAV:  13    -0.208806521626E+03    0.58020E-04   -0.81646E-04  6488   0.970E-02    0.897E-02
DAV:  14    -0.208806477811E+03    0.43816E-04   -0.27797E-04  6760   0.352E-02    0.454E-02
DAV:  15    -0.208806462564E+03    0.15247E-04   -0.34446E-05  8416   0.117E-02    0.298E-02
DAV:  16    -0.208806463178E+03   -0.61434E-06   -0.25639E-06  6784   0.530E-03    0.255E-02
DAV:  17    -0.208806451739E+03    0.11440E-04   -0.43569E-05  7728   0.157E-02    0.117E-02
DAV:  18    -0.208806451629E+03    0.10965E-06   -0.55005E-06  6824   0.555E-03    0.414E-03
DAV:  19    -0.208806451945E+03   -0.31572E-06   -0.27030E-07  6120   0.120E-03    0.197E-03
DAV:  20    -0.208806452155E+03   -0.21031E-06   -0.69543E-08  5384   0.813E-04    0.998E-04
DAV:  21    -0.208806452270E+03   -0.11461E-06   -0.31129E-08  4904   0.449E-04    0.446E-04
DAV:  22    -0.208806452335E+03   -0.65266E-07   -0.57439E-09  3360   0.267E-04    0.350E-04
DAV:  23    -0.208806452328E+03    0.67457E-08   -0.23472E-09  3360   0.185E-04
   1 F= -.20880645E+03 E0= -.20880645E+03  d E =-.208806E+03
       N       E                     dE             d eps       ncg     rms          rms(c)
DAV:   1    -0.208806452321E+03    0.13993E-07   -0.83029E-08  4920   0.582E-04    0.140E-04
DAV:   2    -0.208806452319E+03    0.16043E-08   -0.38003E-09  3336   0.253E-04    0.592E-05
DAV:   3    -0.208806452324E+03   -0.48349E-08   -0.13116E-09  3320   0.181E-04    0.414E-05
DAV:   4    -0.208806452325E+03   -0.71759E-09   -0.41554E-10  3312   0.919E-05    0.254E-05
DAV:   5    -0.208806452326E+03   -0.49749E-09   -0.19179E-10  3288   0.784E-05
   2 F= -.20880645E+03 E0= -.20880645E+03  d E =0.280215E-08
       N       E                     dE             d eps       ncg     rms          rms(c)
DAV:   1    -0.208806452325E+03   -0.81855E-11   -0.10136E-09  3240   0.705E-05    0.103E-05
DAV:   2    -0.208806452326E+03   -0.52751E-09   -0.22181E-10  3240   0.765E-05    0.726E-06
DAV:   3    -0.208806452325E+03    0.18917E-09   -0.60031E-11  3240   0.334E-05    0.305E-06
DAV:   4    -0.208806452325E+03    0.66211E-09   -0.38206E-11  3232   0.221E-05    0.575E-06
DAV:   5    -0.208806452325E+03   -0.34015E-09   -0.18474E-11  3216   0.126E-05
   3 F= -.20880645E+03 E0= -.20880645E+03  d E =0.327509E-08
       N       E                     dE             d eps       ncg     rms          rms(c)
DAV:   1    -0.208806452325E+03   -0.52751E-09   -0.28529E-09  3216   0.115E-04    0.158E-05
DAV:   2    -0.208806452326E+03   -0.29468E-09   -0.42751E-10  3192   0.106E-04    0.889E-06
DAV:   3    -0.208806452325E+03    0.22646E-09   -0.11657E-10  3192   0.452E-05    0.310E-06
DAV:   4    -0.208806452325E+03    0.18827E-09   -0.63565E-11  3168   0.287E-05    0.602E-06
DAV:   5    -0.208806452326E+03   -0.69122E-09   -0.26987E-11  3144   0.214E-05
   4 F= -.20880645E+03 E0= -.20880645E+03  d E =0.251657E-08
       N       E                     dE             d eps       ncg     rms          rms(c)
DAV:   1    -0.208806452325E+03    0.20191E-09   -0.12361E-08  3552   0.223E-04    0.167E-05
DAV:   2    -0.208806452325E+03   -0.18008E-09   -0.98124E-10  3096   0.985E-05    0.578E-06
DAV:   3    -0.208806452325E+03    0.18190E-11   -0.20534E-10  3064   0.498E-05    0.633E-06
DAV:   4    -0.208806452325E+03   -0.12733E-10   -0.68559E-11  3048   0.352E-05    0.504E-06
DAV:   5    -0.208806452325E+03    0.30741E-09   -0.33145E-11  3048   0.207E-05
   5 F= -.20880645E+03 E0= -.20880645E+03  d E =0.352611E-08
       N       E                     dE             d eps       ncg     rms          rms(c)
DAV:   1    -0.208806452325E+03    0.20555E-09   -0.50465E-08  4240   0.439E-04    0.302E-05
DAV:   2    -0.208806452325E+03   -0.43292E-09   -0.16802E-09  3048   0.166E-04    0.161E-05
DAV:   3    -0.208806452326E+03   -0.29559E-09   -0.42022E-10  3032   0.102E-04    0.888E-06
DAV:   4    -0.208806452325E+03    0.63937E-09   -0.16798E-10  3024   0.544E-05    0.887E-06
DAV:   5    -0.208806452326E+03   -0.67212E-09   -0.76900E-11  3024   0.447E-05
   6 F= -.20880645E+03 E0= -.20880645E+03  d E =0.266300E-08
       N       E                     dE             d eps       ncg     rms          rms(c)
DAV:   1    -0.208806452325E+03   -0.25830E-09   -0.52155E-08  4328   0.449E-04    0.317E-05
DAV:   2    -0.208806452326E+03   -0.30377E-09   -0.16922E-09  3024   0.167E-04    0.158E-05
DAV:   3    -0.208806452327E+03   -0.14315E-08   -0.43364E-10  3024   0.977E-05    0.106E-05
DAV:   4    -0.208806452327E+03    0.36198E-09   -0.15308E-10  3024   0.578E-05    0.903E-06
DAV:   5    -0.208806452326E+03    0.46020E-09   -0.72566E-11  3024   0.392E-05
   7 F= -.20880645E+03 E0= -.20880645E+03  d E =-.499313E-09
       N       E                     dE             d eps       ncg     rms          rms(c)
DAV:   1    -0.208806452327E+03   -0.59299E-09   -0.13399E-08  3264   0.234E-04    0.197E-05
DAV:   2    -0.208806452327E+03    0.71850E-10   -0.12492E-09  3000   0.116E-04    0.101E-05
DAV:   3    -0.208806452328E+03   -0.46384E-09   -0.29075E-10  3000   0.716E-05    0.766E-06
DAV:   4    -0.208806452327E+03    0.42473E-09   -0.12805E-10  3000   0.445E-05    0.710E-06
DAV:   5    -0.208806452327E+03   -0.80036E-10   -0.65169E-11  3000   0.309E-05
   8 F= -.20880645E+03 E0= -.20880645E+03  d E =-.159980E-08
       N       E                     dE             d eps       ncg     rms          rms(c)
DAV:   1    -0.208806452328E+03   -0.62755E-09   -0.27872E-09  3016   0.996E-05    0.174E-05
DAV:   2    -0.208806452328E+03    0.13279E-09   -0.30830E-10  3000   0.648E-05    0.740E-06
DAV:   3    -0.208806452328E+03   -0.38017E-09   -0.59313E-11  3000   0.304E-05    0.447E-06
DAV:   4    -0.208806452328E+03    0.33106E-09   -0.29518E-11  3000   0.204E-05    0.475E-06
DAV:   5    -0.208806452328E+03    0.98225E-10   -0.11234E-11  3000   0.134E-05
   9 F= -.20880645E+03 E0= -.20880645E+03  d E =-.365617E-09
       N       E                     dE             d eps       ncg     rms          rms(c)
DAV:   1    -0.208806452328E+03   -0.18554E-09   -0.19102E-08  3608   0.246E-04    0.374E-05
DAV:   2    -0.208806452328E+03   -0.38199E-10   -0.10975E-09  3000   0.894E-05    0.856E-06
DAV:   3    -0.208806452328E+03   -0.96406E-10   -0.19694E-10  3000   0.558E-05    0.886E-06
DAV:   4    -0.208806452328E+03    0.32651E-09   -0.54690E-11  3000   0.352E-05    0.801E-06
DAV:   5    -0.208806452327E+03    0.36653E-09   -0.33905E-11  3000   0.202E-05
  10 F= -.20880645E+03 E0= -.20880645E+03  d E =-.909495E-10
       N       E                     dE             d eps       ncg     rms          rms(c)
DAV:   1    -0.208806452327E+03    0.58390E-09   -0.20838E-09  3000   0.912E-05    0.149E-05
DAV:   2    -0.208806452327E+03   -0.26284E-09   -0.25085E-10  3000   0.617E-05    0.627E-06
DAV:   3    -0.208806452327E+03    0.59754E-09   -0.57743E-11  3000   0.363E-05    0.366E-06
DAV:   4    -0.208806452327E+03   -0.66393E-10   -0.30240E-11  3000   0.189E-05    0.444E-06
DAV:   5    -0.208806452327E+03   -0.44201E-09   -0.20421E-11  3000   0.170E-05
  11 F= -.20880645E+03 E0= -.20880645E+03  d E =0.436557E-10
