 vasp.6.4.3 19Mar24 (build Apr 09 2025 20:43:19) complex                        
  
 executed on             LinuxIFC date 2025.04.13  16:57:58
 running   36 mpi-ranks, on    1 nodes
 distrk:  each k-point on   36 cores,    1 groups
 distr:  one band on NCORE=   9 cores,    4 groups


--------------------------------------------------------------------------------------------------------


 INCAR:
   PREC = Accurate
   IBRION = 2
   NSW = 100
   NELMIN = 5
   ISIF = 2
   ENCUT = 520
   EDIFF = 1.000000e-08
   EDIFFG = -1.000000e-5
   ISMEAR = 0
   SIGMA = 0.05
   IALGO = 38
   LREAL = .FALSE.
   ADDGRID = .TRUE.
   LWAVE = .FALSE.
   LCHARG = .FALSE.
   NCORE = 9

 POTCAR:    PAW_PBE Bi_d 06Sep2000                
 POTCAR:    PAW_PBE Se 06Sep2000                  
 POTCAR:    PAW_PBE O 08Apr2002                   
 POTCAR:    PAW_PBE S 06Sep2000                   
 POTCAR:    PAW_PBE Bi_d 06Sep2000                
   SHA256 =  572e7eac3f9482ff025db24f2820381a7a3856069fa85913dc654793f618f69a Bi_d/POTCAR           
   COPYR  = (c) Copyright 06Sep2000 Georg Kresse                                                    
   COPYR  = This file is part of the software VASP. Any use, copying, and all other rights are regul
   COPYR  = If you do not have a valid VASP license, you may not use, copy or distribute this file. 
   VRHFIN =Bi:                                                                                      
   LEXCH  = PE                                                                                      
   EATOM  =  1959.2045 eV,  143.9975 Ry                                                             
                                                                                                    
   TITEL  = PAW_PBE Bi_d 06Sep2000                                                                  
   LULTRA =        F    use ultrasoft PP ?                                                          
   IUNSCR =        1    unscreen: 0-lin 1-nonlin 2-no                                               
   RPACOR =    2.200    partial core radius                                                         
   POMASS =  208.980; ZVAL   =   15.000    mass and valenz                                          
   RCORE  =    2.500    outmost cutoff radius                                                       
   RWIGS  =    3.090; RWIGS  =    1.635    wigner-seitz radius (au A)                               
   ENMAX  =  242.839; ENMIN  =  182.129 eV                                                          
   ICORE  =        3    local potential                                                             
   LCOR   =        T    correct aug charges                                                         
   LPAW   =        T    paw PP                                                                      
   EAUG   =  442.899                                                                                
   DEXC   =    0.000                                                                                
   RMAX   =    2.551    core radius for proj-oper                                                   
   RAUG   =    1.300    factor for augmentation sphere                                              
   RDEP   =    2.650    radius for radial grids                                                     
   RDEPT  =    2.039    core radius for aug-charge                                                  
                                                                                                    
   Atomic configuration                                                                             
   16 entries                                                                                       
     n  l   j            E        occ.                                                              
     1  0  0.50    -90639.6581   2.0000                                                             
     2  0  0.50    -16282.4666   2.0000                                                             
     2  1  1.50    -13922.8286   6.0000                                                             
     3  0  0.50     -3930.4763   2.0000                                                             
     3  1  1.50     -3256.7013   6.0000                                                             
     3  2  2.50     -2581.6168  10.0000                                                             
     4  0  0.50      -902.2614   2.0000                                                             
     4  1  1.50      -681.5915   6.0000                                                             
     4  2  2.50      -429.8249  10.0000                                                             
     4  3  3.50      -152.6004  14.0000                                                             
     5  0  0.50      -157.7156   2.0000                                                             
     5  1  1.50       -95.8054   6.0000                                                             
     5  2  2.50       -27.0806  10.0000                                                             
     6  0  0.50       -14.4732   2.0000                                                             
     6  1  1.50        -4.5702   3.0000                                                             
     5  3  2.50        -2.7212   0.0000                                                             
   Description                                                                                      
     l       E           TYP  RCUT    TYP  RCUT                                                     
     2    -27.0805982     23  2.500                                                                 
     2     -1.3605826     23  2.500                                                                 
     0    -14.4732271     23  2.500                                                                 
     0      6.8029130     23  2.500                                                                 
     1     -4.5701651     23  2.500                                                                 
     1     13.6058260     23  2.500                                                                 
     3     -1.3605826      7  2.500                                                                 
  local pseudopotential read in
  partial core-charges read in
  partial kinetic energy density read in
  atomic valenz-charges read in
  non local Contribution for L=           2  read in
    real space projection operators read in
  non local Contribution for L=           2  read in
    real space projection operators read in
  non local Contribution for L=           0  read in
    real space projection operators read in
  non local Contribution for L=           0  read in
    real space projection operators read in
  non local Contribution for L=           1  read in
    real space projection operators read in
  non local Contribution for L=           1  read in
    real space projection operators read in
    PAW grid and wavefunctions read in
 
   number of l-projection  operators is LMAX  =           6
   number of lm-projection operators is LMMAX =          18
 
 POTCAR:    PAW_PBE Se 06Sep2000                  
   SHA256 =  eabb916e6b4c819dc065ce039373bc328651da483898f08fb9e49c498452bf12 Se/POTCAR             
   COPYR  = (c) Copyright 06Sep2000 Georg Kresse                                                    
   COPYR  = This file is part of the software VASP. Any use, copying, and all other rights are regul
   COPYR  = If you do not have a valid VASP license, you may not use, copy or distribute this file. 
   VRHFIN =Se: s2p4                                                                                 
   LEXCH  = PE                                                                                      
   EATOM  =   257.1286 eV,   18.8984 Ry                                                             
                                                                                                    
   TITEL  = PAW_PBE Se 06Sep2000                                                                    
   LULTRA =        F    use ultrasoft PP ?                                                          
   IUNSCR =        1    unscreen: 0-lin 1-nonlin 2-no                                               
   RPACOR =    1.900    partial core radius                                                         
   POMASS =   78.960; ZVAL   =    6.000    mass and valenz                                          
   RCORE  =    2.100    outmost cutoff radius                                                       
   RWIGS  =    2.200; RWIGS  =    1.164    wigner-seitz radius (au A)                               
   ENMAX  =  211.555; ENMIN  =  158.666 eV                                                          
   ICORE  =        3    local potential                                                             
   LCOR   =        T    correct aug charges                                                         
   LPAW   =        T    paw PP                                                                      
   EAUG   =  446.842                                                                                
   DEXC   =    0.000                                                                                
   RMAX   =    2.147    core radius for proj-oper                                                   
   RAUG   =    1.300    factor for augmentation sphere                                              
   RDEP   =    2.177    radius for radial grids                                                     
   RDEPT  =    1.928    core radius for aug-charge                                                  
                                                                                                    
   Atomic configuration                                                                             
   10 entries                                                                                       
     n  l   j            E        occ.                                                              
     1  0  0.50    -12503.4787   2.0000                                                             
     2  0  0.50     -1606.9547   2.0000                                                             
     2  1  1.50     -1413.3140   6.0000                                                             
     3  0  0.50      -213.4885   2.0000                                                             
     3  1  1.50      -152.9538   6.0000                                                             
     3  2  2.50       -53.1221  10.0000                                                             
     4  0  0.50       -17.2865   2.0000                                                             
     4  1  0.50        -6.5110   4.0000                                                             
     4  2  2.50        -6.8029   0.0000                                                             
     4  3  2.50        -6.8029   0.0000                                                             
   Description                                                                                      
     l       E           TYP  RCUT    TYP  RCUT                                                     
     0    -17.2865377     23  2.100                                                                 
     0    -15.3094411     23  2.100                                                                 
     1     -6.5110275     23  2.100                                                                 
     1     -0.0695192     23  2.100                                                                 
     2     -6.8029130     23  2.100                                                                 
     3     -1.3605826      7  2.100                                                                 
  local pseudopotential read in
  partial core-charges read in
  partial kinetic energy density read in
  atomic valenz-charges read in
  non local Contribution for L=           0  read in
    real space projection operators read in
  non local Contribution for L=           0  read in
    real space projection operators read in
  non local Contribution for L=           1  read in
    real space projection operators read in
  non local Contribution for L=           1  read in
    real space projection operators read in
  non local Contribution for L=           2  read in
    real space projection operators read in
    PAW grid and wavefunctions read in
 
   number of l-projection  operators is LMAX  =           5
   number of lm-projection operators is LMMAX =          13
 
 POTCAR:    PAW_PBE O 08Apr2002                   
   SHA256 =  818f92134a0a090dccd8ba1447fa70422a3b330e708bb4f08108d8ae51209ddf O/POTCAR              
   COPYR  = (c) Copyright 08Apr2002 Georg Kresse                                                    
   COPYR  = This file is part of the software VASP. Any use, copying, and all other rights are regul
   COPYR  = If you do not have a valid VASP license, you may not use, copy or distribute this file. 
   VRHFIN =O: s2p4                                                                                  
   LEXCH  = PE                                                                                      
   EATOM  =   432.3788 eV,   31.7789 Ry                                                             
                                                                                                    
   TITEL  = PAW_PBE O 08Apr2002                                                                     
   LULTRA =        F    use ultrasoft PP ?                                                          
   IUNSCR =        1    unscreen: 0-lin 1-nonlin 2-no                                               
   RPACOR =    1.200    partial core radius                                                         
   POMASS =   16.000; ZVAL   =    6.000    mass and valenz                                          
   RCORE  =    1.520    outmost cutoff radius                                                       
   RWIGS  =    1.550; RWIGS  =    0.820    wigner-seitz radius (au A)                               
   ENMAX  =  400.000; ENMIN  =  300.000 eV                                                          
   ICORE  =        2    local potential                                                             
   LCOR   =        T    correct aug charges                                                         
   LPAW   =        T    paw PP                                                                      
   EAUG   =  605.392                                                                                
   DEXC   =    0.000                                                                                
   RMAX   =    1.553    core radius for proj-oper                                                   
   RAUG   =    1.300    factor for augmentation sphere                                              
   RDEP   =    1.550    radius for radial grids                                                     
   RDEPT  =    1.329    core radius for aug-charge                                                  
                                                                                                    
   Atomic configuration                                                                             
    4 entries                                                                                       
     n  l   j            E        occ.                                                              
     1  0  0.50      -514.6923   2.0000                                                             
     2  0  0.50       -23.9615   2.0000                                                             
     2  1  0.50        -9.0305   4.0000                                                             
     3  2  1.50        -9.5241   0.0000                                                             
   Description                                                                                      
     l       E           TYP  RCUT    TYP  RCUT                                                     
     0    -23.9615318     23  1.200                                                                 
     0     -9.5240782     23  1.200                                                                 
     1     -9.0304911     23  1.520                                                                 
     1      8.1634956     23  1.520                                                                 
     2     -9.5240782      7  1.500                                                                 
  local pseudopotential read in
  partial core-charges read in
  partial kinetic energy density read in
  kinetic energy density of atom read in
  atomic valenz-charges read in
  non local Contribution for L=           0  read in
    real space projection operators read in
  non local Contribution for L=           0  read in
    real space projection operators read in
  non local Contribution for L=           1  read in
    real space projection operators read in
  non local Contribution for L=           1  read in
    real space projection operators read in
    PAW grid and wavefunctions read in
 
   number of l-projection  operators is LMAX  =           4
   number of lm-projection operators is LMMAX =           8
 
 POTCAR:    PAW_PBE S 06Sep2000                   
   SHA256 =  0fc7481fb0695f01bdc6462160264c5c84044ae9ec85a907d398b887a2bc3132 S/POTCAR              
   COPYR  = (c) Copyright 06Sep2000 Georg Kresse                                                    
   COPYR  = This file is part of the software VASP. Any use, copying, and all other rights are regul
   COPYR  = If you do not have a valid VASP license, you may not use, copy or distribute this file. 
   VRHFIN =S : s2p4                                                                                 
   LEXCH  = PE                                                                                      
   EATOM  =   276.8230 eV,   20.3459 Ry                                                             
                                                                                                    
   TITEL  = PAW_PBE S 06Sep2000                                                                     
   LULTRA =        F    use ultrasoft PP ?                                                          
   IUNSCR =        1    unscreen: 0-lin 1-nonlin 2-no                                               
   RPACOR =    1.500    partial core radius                                                         
   POMASS =   32.066; ZVAL   =    6.000    mass and valenz                                          
   RCORE  =    1.900    outmost cutoff radius                                                       
   RWIGS  =    2.200; RWIGS  =    1.164    wigner-seitz radius (au A)                               
   ENMAX  =  258.689; ENMIN  =  194.016 eV                                                          
   ICORE  =        2    local potential                                                             
   LCOR   =        T    correct aug charges                                                         
   LPAW   =        T    paw PP                                                                      
   EAUG   =  335.092                                                                                
   DEXC   =    0.000                                                                                
   RMAX   =    1.942    core radius for proj-oper                                                   
   RAUG   =    1.300    factor for augmentation sphere                                              
   RDEP   =    1.954    radius for radial grids                                                     
   RDEPT  =    1.744    core radius for aug-charge                                                  
                                                                                                    
   Atomic configuration                                                                             
    6 entries                                                                                       
     n  l   j            E        occ.                                                              
     1  0  0.50     -2405.8406   2.0000                                                             
     2  0  0.50      -211.7007   2.0000                                                             
     2  1  1.50      -156.4958   6.0000                                                             
     3  0  0.50       -17.2562   2.0000                                                             
     3  1  0.50        -7.0085   4.0000                                                             
     3  2  1.50        -6.8029   0.0000                                                             
   Description                                                                                      
     l       E           TYP  RCUT    TYP  RCUT                                                     
     0    -17.2561641     23  1.900                                                                 
     0    -15.8743224     23  1.900                                                                 
     1     -7.0085400     23  1.900                                                                 
     1     -2.7779785     23  1.900                                                                 
     2     -6.8029130     23  1.900                                                                 
  local pseudopotential read in
  partial core-charges read in
  partial kinetic energy density read in
  atomic valenz-charges read in
  non local Contribution for L=           0  read in
    real space projection operators read in
  non local Contribution for L=           0  read in
    real space projection operators read in
  non local Contribution for L=           1  read in
    real space projection operators read in
  non local Contribution for L=           1  read in
    real space projection operators read in
    PAW grid and wavefunctions read in
 
   number of l-projection  operators is LMAX  =           4
   number of lm-projection operators is LMMAX =           8
 
 -----------------------------------------------------------------------------
|                                                                             |
|               ----> ADVICE to this user running VASP <----                  |
|                                                                             |
|     You have a (more or less) 'large supercell' and for larger cells it     |
|     might be more efficient to use real-space projection operators.         |
|     Therefore, try LREAL= Auto in the INCAR file.                           |
|     Mind: For very accurate calculation, you might also keep the            |
|     reciprocal projection scheme (i.e. LREAL=.FALSE.).                      |
|                                                                             |
 -----------------------------------------------------------------------------

  PAW_PBE Bi_d 06Sep2000                :
 energy of atom  1       EATOM=-1959.2045
 kinetic energy error for atom=    0.0040 (will be added to EATOM!!)
  PAW_PBE Se 06Sep2000                  :
 energy of atom  2       EATOM= -257.1286
 kinetic energy error for atom=    0.0007 (will be added to EATOM!!)
  PAW_PBE O 08Apr2002                   :
 energy of atom  3       EATOM= -432.3788
 kinetic energy error for atom=    0.0208 (will be added to EATOM!!)
  PAW_PBE S 06Sep2000                   :
 energy of atom  4       EATOM= -276.8230
 kinetic energy error for atom=    0.0016 (will be added to EATOM!!)
 
 
 POSCAR: generated by phonopy
  positions in direct lattice
  velocities in cartesian coordinates


 exchange-correlation table for PE
   RHO(1)=    0.500       N(1)  =     2000
   RHO(2)=  100.500       N(2)  =     4000
 


--------------------------------------------------------------------------------------------------------


 ion  position               nearest neighbor table
   1  0.249  0.249  0.855-  24 2.33  28 2.33  25 2.34  30 2.34  40 3.27  18 3.29  17 3.29  19 3.30
                            13 3.57   5 3.76   7 3.77   6 3.77   8 3.77   3 3.88   2 3.88   3 3.92
   2  0.751  0.249  0.855-  24 2.33  29 2.33  25 2.34  31 2.34  40 3.27  18 3.29  17 3.29  19 3.30
                            14 3.57   5 3.76   7 3.77   6 3.77   8 3.77   4 3.88   1 3.88   4 3.92
   3  0.249  0.751  0.855-  26 2.33  28 2.33  27 2.34  30 2.34  40 3.27  18 3.29  17 3.29  19 3.30
                            15 3.57   5 3.76   7 3.77   6 3.77   8 3.77   4 3.88   1 3.88   4 3.92
   4  0.751  0.751  0.855-  26 2.33  29 2.33  27 2.34  31 2.34  40 3.27  18 3.29  17 3.29  19 3.30
                            16 3.57   5 3.76   7 3.77   6 3.77   8 3.77   3 3.88   2 3.88   2 3.92
   5  0.000  0.000  0.646-  24 2.33  26 2.33  28 2.33  29 2.33  20 3.29  21 3.29  22 3.29  23 3.29
                             9 3.59   2 3.76   3 3.76   4 3.76   1 3.76   7 3.90   6 3.90   7 3.90
   6  0.500  0.000  0.647-  28 2.33  29 2.33  25 2.33  27 2.33  20 3.30  21 3.30  22 3.30  23 3.30
                            10 3.61   2 3.77   3 3.77   4 3.77   1 3.77   5 3.90   5 3.90   8 3.90
   7  0.000  0.500  0.647-  24 2.33  26 2.33  30 2.33  31 2.33  20 3.30  21 3.30  22 3.30  23 3.30
                            11 3.61   2 3.77   3 3.77   4 3.77   1 3.77   5 3.90   5 3.90   8 3.90
   8  0.500  0.500  0.648-  25 2.33  27 2.33  30 2.33  31 2.33  20 3.30  21 3.30  22 3.30  23 3.30
                            12 3.64   2 3.77   3 3.77   4 3.77   1 3.77   7 3.90   6 3.90   6 3.90
   9  0.000  0.000  0.354-  32 2.33  33 2.33  36 2.33  38 2.33  20 3.29  21 3.29  22 3.29  23 3.29
                             5 3.59  13 3.76  14 3.76  15 3.76  16 3.76  10 3.90  11 3.90  11 3.90
  10  0.500  0.000  0.353-  32 2.33  33 2.33  37 2.33  39 2.33  20 3.30  21 3.30  22 3.30  23 3.30
                             6 3.61  13 3.77  14 3.77  15 3.77  16 3.77   9 3.90   9 3.90  12 3.90
  11  0.000  0.500  0.353-  36 2.33  38 2.33  34 2.33  35 2.33  20 3.30  21 3.30  22 3.30  23 3.30
                             7 3.61  13 3.77  14 3.77  15 3.77  16 3.77   9 3.90   9 3.90  12 3.90
  12  0.500  0.500  0.352-  34 2.33  35 2.33  37 2.33  39 2.33  20 3.30  21 3.30  22 3.30  23 3.30
                             8 3.64  13 3.77  14 3.77  15 3.77  16 3.77  10 3.90  11 3.90  10 3.90
  13  0.249  0.249  0.145-  32 2.33  36 2.33  34 2.34  37 2.34  40 3.27  18 3.29  17 3.29  19 3.30
                             1 3.57   9 3.76  10 3.77  11 3.77  12 3.77  14 3.88  15 3.88  15 3.92
  14  0.751  0.249  0.145-  33 2.33  36 2.33  35 2.34  37 2.34  40 3.27  18 3.29  17 3.29  19 3.30
                             2 3.57   9 3.76  10 3.77  11 3.77  12 3.77  13 3.88  16 3.88  16 3.92
  15  0.249  0.751  0.145-  32 2.33  38 2.33  34 2.34  39 2.34  40 3.27  18 3.29  17 3.29  19 3.30
                             3 3.57   9 3.76  10 3.77  11 3.77  12 3.77  13 3.88  16 3.88  16 3.92
  16  0.751  0.751  0.145-  33 2.33  38 2.33  35 2.34  39 2.34  40 3.27  18 3.29  17 3.29  19 3.30
                             4 3.57   9 3.76  10 3.77  11 3.77  12 3.77  14 3.88  15 3.88  14 3.92
  17  0.500  0.000  0.000-   1 3.29   2 3.29   3 3.29   4 3.29  13 3.29  14 3.29  15 3.29  16 3.29

  18  0.000  0.500  0.000-   1 3.29   2 3.29   3 3.29   4 3.29  13 3.29  14 3.29  15 3.29  16 3.29

  19  0.500  0.500  0.000-   1 3.30   2 3.30   3 3.30   4 3.30  13 3.30  14 3.30  15 3.30  16 3.30

  20  0.250  0.250  0.500-   5 3.29   9 3.29   7 3.30   6 3.30  10 3.30  11 3.30   8 3.30  12 3.30

  21  0.750  0.250  0.500-   5 3.29   9 3.29   7 3.30   6 3.30  10 3.30  11 3.30   8 3.30  12 3.30

  22  0.250  0.750  0.500-   5 3.29   9 3.29   7 3.30   6 3.30  10 3.30  11 3.30   8 3.30  12 3.30

  23  0.750  0.750  0.500-   5 3.29   9 3.29   7 3.30   6 3.30  10 3.30  11 3.30   8 3.30  12 3.30

  24  0.000  0.250  0.750-   1 2.33   2 2.33   5 2.33   7 2.33
  25  0.500  0.250  0.751-   8 2.33   6 2.33   1 2.34   2 2.34
  26  0.000  0.750  0.750-   3 2.33   4 2.33   5 2.33   7 2.33
  27  0.500  0.750  0.751-   8 2.33   6 2.33   3 2.34   4 2.34
  28  0.250  0.000  0.750-   1 2.33   3 2.33   5 2.33   6 2.33
  29  0.750  0.000  0.750-   2 2.33   4 2.33   5 2.33   6 2.33
  30  0.250  0.500  0.751-   8 2.33   7 2.33   1 2.34   3 2.34
  31  0.750  0.500  0.751-   8 2.33   7 2.33   2 2.34   4 2.34
  32  0.250  0.000  0.250-  13 2.33  15 2.33   9 2.33  10 2.33
  33  0.750  0.000  0.250-  14 2.33  16 2.33   9 2.33  10 2.33
  34  0.250  0.500  0.249-  12 2.33  11 2.33  13 2.34  15 2.34
  35  0.750  0.500  0.249-  12 2.33  11 2.33  14 2.34  16 2.34
  36  0.000  0.250  0.250-  13 2.33  14 2.33   9 2.33  11 2.33
  37  0.500  0.250  0.249-  12 2.33  10 2.33  13 2.34  14 2.34
  38  0.000  0.750  0.250-  15 2.33  16 2.33   9 2.33  11 2.33
  39  0.500  0.750  0.249-  12 2.33  10 2.33  15 2.34  16 2.34
  40  0.000  0.000  0.000-   1 3.27   2 3.27   3 3.27   4 3.27  13 3.27  14 3.27  15 3.27  16 3.27

 
  LATTYP: Found a simple tetragonal cell.
 ALAT       =     7.8009582534
 C/A-ratio  =     1.5781187256
  
  Lattice vectors:
  
 A1 = (   7.8009582534,   0.0000000000,   0.0000000000)
 A2 = (   0.0000000000,   7.8009582534,   0.0000000000)
 A3 = (   0.0000000000,   0.0000000000,  12.3108382974)


Analysis of symmetry for initial positions (statically):
=====================================================================
 Subroutine PRICEL returns:
 Original cell was already a primitive cell.
 

 Routine SETGRP: Setting up the symmetry group for a 
 simple tetragonal supercell.


 Subroutine GETGRP returns: Found 16 space group operations
 (whereof 16 operations were pure point group operations)
 out of a pool of 16 trial point group operations.


The static configuration has the point symmetry D_4h.


Analysis of symmetry for dynamics (positions and initial velocities):
=====================================================================
 Subroutine PRICEL returns:
 Original cell was already a primitive cell.
 

 Routine SETGRP: Setting up the symmetry group for a 
 simple tetragonal supercell.


 Subroutine GETGRP returns: Found 16 space group operations
 (whereof 16 operations were pure point group operations)
 out of a pool of 16 trial point group operations.


The dynamic configuration has the point symmetry D_4h.


 Subroutine INISYM returns: Found 16 space group operations
 (whereof 16 operations are pure point group operations),
 and found     1 'primitive' translations


----------------------------------------------------------------------------------------

                                     Primitive cell                                     

  volume of cell :     749.1754

  direct lattice vectors                    reciprocal lattice vectors
     7.800958253  0.000000000  0.000000000     0.128189380  0.000000000  0.000000000
     0.000000000  7.800958253  0.000000000     0.000000000  0.128189380  0.000000000
     0.000000000  0.000000000 12.310838297     0.000000000  0.000000000  0.081229237

  length of vectors
     7.800958253  7.800958253 12.310838297     0.128189380  0.128189380  0.081229237

  position of ions in fractional coordinates (direct lattice)
     0.248877497  0.248877497  0.854997309
     0.751122503  0.248877497  0.854997309
     0.248877497  0.751122503  0.854997309
     0.751122503  0.751122503  0.854997309
     0.000000000  0.000000000  0.645987663
     0.500000000  0.000000000  0.646797741
     0.000000000  0.500000000  0.646797741
     0.500000000  0.500000000  0.647704937
     0.000000000  0.000000000  0.354012337
     0.500000000  0.000000000  0.353202259
     0.000000000  0.500000000  0.353202259
     0.500000000  0.500000000  0.352295063
     0.248877497  0.248877497  0.145002691
     0.751122503  0.248877497  0.145002691
     0.248877497  0.751122503  0.145002691
     0.751122503  0.751122503  0.145002691
     0.500000000  0.000000000  0.000000000
     0.000000000  0.500000000  0.000000000
     0.500000000  0.500000000  0.000000000
     0.250211251  0.250211251  0.500000000
     0.749788749  0.250211251  0.500000000
     0.250211251  0.749788749  0.500000000
     0.749788749  0.749788749  0.500000000
     0.000000000  0.249507317  0.750436545
     0.500000000  0.249642210  0.751427182
     0.000000000  0.750492683  0.750436545
     0.500000000  0.750357790  0.751427182
     0.249507317  0.000000000  0.750436545
     0.750492683  0.000000000  0.750436545
     0.249642210  0.500000000  0.751427182
     0.750357790  0.500000000  0.751427182
     0.249507317  0.000000000  0.249563455
     0.750492683  0.000000000  0.249563455
     0.249642210  0.500000000  0.248572818
     0.750357790  0.500000000  0.248572818
     0.000000000  0.249507317  0.249563455
     0.500000000  0.249642210  0.248572818
     0.000000000  0.750492683  0.249563455
     0.500000000  0.750357790  0.248572818
     0.000000000  0.000000000  0.000000000

  ion indices of the primitive-cell ions
   primitive index   ion index
                 1           1
                 2           2
                 3           3
                 4           4
                 5           5
                 6           6
                 7           7
                 8           8
                 9           9
                10          10
                11          11
                12          12
                13          13
                14          14
                15          15
                16          16
                17          17
                18          18
                19          19
                20          20
                21          21
                22          22
                23          23
                24          24
                25          25
                26          26
                27          27
                28          28
                29          29
                30          30
                31          31
                32          32
                33          33
                34          34
                35          35
                36          36
                37          37
                38          38
                39          39
                40          40

----------------------------------------------------------------------------------------

 
 
 KPOINTS: K-Spacing Value to Generate K-Mesh: 0.03

Automatic generation of k-mesh.
 Grid dimensions read from file:
 generate k-points for:    4    4    3

 Generating k-lattice:

  Cartesian coordinates                     Fractional coordinates (reciprocal lattice)
     0.032047345  0.000000000  0.000000000     0.250000000  0.000000000  0.000000000
     0.000000000  0.032047345  0.000000000     0.000000000  0.250000000  0.000000000
     0.000000000  0.000000000  0.027076412     0.000000000  0.000000000  0.333333333

  Length of vectors
     0.032047345  0.032047345  0.027076412

  Shift w.r.t. Gamma in fractional coordinates (k-lattice)
     0.000000000  0.000000000  0.000000000

 
 Subroutine IBZKPT returns following result:
 ===========================================
 
 Found     12 irreducible k-points:
 
 Following reciprocal coordinates:
            Coordinates               Weight
  0.000000  0.000000  0.000000      1.000000
  0.250000  0.000000  0.000000      4.000000
  0.500000  0.000000  0.000000      2.000000
  0.250000  0.250000  0.000000      4.000000
  0.500000  0.250000  0.000000      4.000000
  0.500000  0.500000  0.000000      1.000000
  0.000000  0.000000  0.333333      2.000000
  0.250000  0.000000  0.333333      8.000000
  0.500000  0.000000  0.333333      4.000000
  0.250000  0.250000  0.333333      8.000000
  0.500000  0.250000  0.333333      8.000000
  0.500000  0.500000  0.333333      2.000000
 
 Following cartesian coordinates:
            Coordinates               Weight
  0.000000  0.000000  0.000000      1.000000
  0.031887  0.000000  0.000000      4.000000
  0.063774  0.000000  0.000000      2.000000
  0.031887  0.031887  0.000000      4.000000
  0.063774  0.031887  0.000000      4.000000
  0.063774  0.063774  0.000000      1.000000
  0.000000  0.000000  0.026941      2.000000
  0.031887  0.000000  0.026941      8.000000
  0.063774  0.000000  0.026941      4.000000
  0.031887  0.031887  0.026941      8.000000
  0.063774  0.031887  0.026941      8.000000
  0.063774  0.063774  0.026941      2.000000
 


--------------------------------------------------------------------------------------------------------




 Dimension of arrays:
   k-points           NKPTS =     12   k-points in BZ     NKDIM =     12   number of bands    NBANDS=    232
   number of dos      NEDOS =    301   number of ions     NIONS =     40
   non local maximal  LDIM  =      6   non local SUM 2l+1 LMDIM =     18
   total plane-waves  NPLWV = 345600
   max r-space proj   IRMAX =      1   max aug-charges    IRDMAX= 163276
   dimension x,y,z NGX =    60 NGY =   60 NGZ =   96
   dimension x,y,z NGXF=   120 NGYF=  120 NGZF=  192
   support grid    NGXF=   240 NGYF=  240 NGZF=  384
   ions per type =              16   7  16   1
   NGX,Y,Z   is equivalent  to a cutoff of  12.79, 12.79, 12.96 a.u.
   NGXF,Y,Z  is equivalent  to a cutoff of  25.57, 25.57, 25.93 a.u.

 SYSTEM =  unknown system                          
 POSCAR =  generated by phonopy                    

 Startparameter for this run:
   NWRITE =      2    write-flag & timer
   PREC   = accura    normal or accurate (medium, high low for compatibility)
   ISTART =      0    job   : 0-new  1-cont  2-samecut
   ICHARG =      2    charge: 1-file 2-atom 10-const
   ISPIN  =      1    spin polarized calculation?
   LNONCOLLINEAR =      F non collinear calculations
   LSORBIT =      F    spin-orbit coupling
   INIWAV =      1    electr: 0-lowe 1-rand  2-diag
   LASPH  =      F    aspherical Exc in radial PAW
 Electronic Relaxation 1
   ENCUT  =  520.0 eV  38.22 Ry    6.18 a.u.  14.50 14.50 22.89*2*pi/ulx,y,z
   ENINI  =  520.0     initial cutoff
   ENAUG  =  605.4 eV  augmentation charge cutoff
   NELM   =     60;   NELMIN=  5; NELMDL= -5     # of ELM steps 
   EDIFF  = 0.1E-07   stopping-criterion for ELM
   LREAL  =      F    real-space projection
   NLSPLINE    = F    spline interpolate recip. space projectors
   LCOMPAT=      F    compatible to vasp.4.4
   GGA_COMPAT  = T    GGA compatible to vasp.4.4-vasp.4.6
   LMAXPAW     = -100 max onsite density
   LMAXMIX     =    2 max onsite mixed and CHGCAR
   VOSKOWN=      0    Vosko Wilk Nusair interpolation
   ROPT   =    0.00000   0.00000   0.00000   0.00000
 Ionic relaxation
   EDIFFG = -.1E-04   stopping-criterion for IOM
   NSW    =    100    number of steps for IOM
   NBLOCK =      1;   KBLOCK =    100    inner block; outer block 
   IBRION =      2    ionic relax: 0-MD 1-quasi-New 2-CG
   NFREE  =      1    steps in history (QN), initial steepest desc. (CG)
   ISIF   =      2    stress and relaxation
   IWAVPR =     11    prediction:  0-non 1-charg 2-wave 3-comb
   ISYM   =      2    0-nonsym 1-usesym 2-fastsym
   LCORR  =      T    Harris-Foulkes like correction to forces

   POTIM  = 0.5000    time-step for ionic-motion
   TEIN   =    0.0    initial temperature
   TEBEG  =    0.0;   TEEND  =   0.0 temperature during run
   SMASS  =  -3.00    Nose mass-parameter (am)
   estimated Nose-frequenzy (Omega)   =  0.10E-29 period in steps = 0.13E+47 mass=  -0.139E-26a.u.
   SCALEE = 1.0000    scale energy and forces
   NPACO  =    256;   APACO  = 10.0  distance and # of slots for P.C.
   PSTRESS=    0.0 pullay stress

  Mass of Ions in am
   POMASS = 208.98 78.96 16.00 32.07
  Ionic Valenz
   ZVAL   =  15.00  6.00  6.00  6.00
  Atomic Wigner-Seitz radii
   RWIGS  =  -1.00 -1.00 -1.00 -1.00
  virtual crystal weights 
   VCA    =   1.00  1.00  1.00  1.00
   NELECT =     384.0000    total number of electrons
   NUPDOWN=      -1.0000    fix difference up-down

 DOS related values:
   EMIN   =  10.00;   EMAX   =-10.00  energy-range for DOS
   EFERMI =   0.00;   METHOD = LEGACY      
   ISMEAR =     0;   SIGMA  =   0.05  broadening in eV -4-tet -1-fermi 0-gaus

 Electronic relaxation 2 (details)
   IALGO  =     38    algorithm
   LDIAG  =      T    sub-space diagonalisation (order eigenvalues)
   LSUBROT=      F    optimize rotation matrix (better conditioning)
   TURBO    =      0    0=normal 1=particle mesh
   IRESTART =      0    0=no restart 2=restart with 2 vectors
   NREBOOT  =      0    no. of reboots
   NMIN     =      0    reboot dimension
   EREF     =   0.00    reference energy to select bands
   IMIX   =      4    mixing-type and parameters
     AMIX     =   0.40;   BMIX     =  1.00
     AMIX_MAG =   1.60;   BMIX_MAG =  1.00
     AMIN     =   0.10
     WC   =   100.;   INIMIX=   1;  MIXPRE=   1;  MAXMIX= -45

 Intra band minimization:
   WEIMIN = 0.0010     energy-eigenvalue tresh-hold
   EBREAK =  0.11E-10  absolut break condition
   DEPER  =   0.30     relativ break condition  

   TIME   =   0.40     timestep for ELM

  volume/ion in A,a.u.               =      18.73       126.39
  Fermi-wavevector in a.u.,A,eV,Ry     =   1.310159  2.475842 23.354632  1.716517
  Thomas-Fermi vector in A             =   2.440709
 
 Write flags
   LWAVE        =      F    write WAVECAR
   LDOWNSAMPLE  =      F    k-point downsampling of WAVECAR
   LCHARG       =      F    write CHGCAR
   LVTOT        =      F    write LOCPOT, total local potential
   LVHAR        =      F    write LOCPOT, Hartree potential only
   WRT_POTENTIAL= false  ! write potential to hdf5 file
   LELF         =      F    write electronic localiz. function (ELF)
   LORBIT       =      0    0 simple, 1 ext, 2 COOP (PROOUT), +10 PAW based schemes


 Dipole corrections
   LMONO      =      F    monopole corrections only (constant potential shift)
   LDIPOL     =      F    correct potential (dipole corrections)
   IDIPOL     =      0    1-x, 2-y, 3-z, 4-all directions 
   EPSILON    =  1.0000000 bulk dielectric constant
   LVACPOTAV  =      F  vacuum potentials using an averaging scheme for the charge density
   VACPOTFLAT =  0.1000000 required flatness to determine vacuum potential
 Exchange correlation treatment:
   GGA     = PE    functional components
   XC_C    = 1    coefficients multiplying the functional components
   LIBXC   =     F    Libxc                    
   VOSKOWN =     0    Vosko Wilk Nusair interpolation
   LHFCALC =     F    Hartree Fock is set to
   LHFONE  =     F    Hartree Fock one center treatment
   AEXX    =    0.0000 exact exchange contribution

 Parameters of functionals:
   PE:
     No parameter
 
 Van der Waals corrections
   IVDW    =     0    specifies the selected vdW correction

 Linear response parameters
   LEPSILON=     F    determine dielectric tensor
   LRPA    =     F    only Hartree local field effects (RPA)
   LNABLA  =     F    use nabla operator in PAW spheres
   LVEL    =     F    velocity operator in full k-point grid
   CSHIFT  =0.1000    complex shift for real part using Kramers Kronig
   OMEGAMAX=  -1.0    maximum frequency
   DEG_THRESHOLD= 0.2000000E-02 threshold for treating states as degnerate
   RTIME   =   -0.100 relaxation time in fs
  (WPLASMAI=    0.000 imaginary part of plasma frequency in eV, 0.658/RTIME)
   DFIELD  = 0.0000000 0.0000000 0.0000000 field for delta impulse in time
 
  Optional k-point grid parameters
   LKPOINTS_OPT  =     F    use optional k-point grid
   KPOINTS_OPT_MODE=     1    mode for optional k-point grid
 
 Orbital magnetization related:
   ORBITALMAG=     F  switch on orbital magnetization
   LCHIMAG   =     F  perturbation theory with respect to B field
   DQ        =  0.001000  dq finite difference perturbation B field
   LLRAUG    =     F  two centre corrections for induced B field
   LBONE     =     F  B-component reconstruction in AE one-centre
   LVGVCALC  =     T  calculate vGv susceptibility
   LVGVAPPL  =     F  apply vGv susceptibility instead of pGv for G=0

 Random number generation:
   RANDOM_GENERATOR = DEFAULT
   PCG_SEED         = not used


--------------------------------------------------------------------------------------------------------


 conjugate gradient relaxation of ions
 charge density and potential will be updated during run
 non-spin polarized calculation
 Variant of blocked Davidson
 Davidson routine will perform the subspace rotation
 perform sub-space diagonalisation
    after iterative eigenvector-optimisation
 modified Broyden-mixing scheme, WC =      100.0
 initial mixing is a Kerker type mixing with AMIX =  0.4000 and BMIX =      1.0000
 Hartree-type preconditioning will be used
 using additional bands           40
 reciprocal scheme for non local part
 use partial core corrections
 calculate Harris-corrections to forces 
   (improved forces if not selfconsistent)
 use gradient corrections 
 use of overlap-Matrix (Vanderbilt PP)
 Gauss-broadening in eV      SIGMA  =   0.05


--------------------------------------------------------------------------------------------------------


  energy-cutoff  :      520.00
  volume of cell :      749.18
      direct lattice vectors                 reciprocal lattice vectors
     7.800958253  0.000000000  0.000000000     0.128189380  0.000000000  0.000000000
     0.000000000  7.800958253  0.000000000     0.000000000  0.128189380  0.000000000
     0.000000000  0.000000000 12.310838297     0.000000000  0.000000000  0.081229237

  length of vectors
     7.800958253  7.800958253 12.310838297     0.128189380  0.128189380  0.081229237


 
 k-points in units of 2pi/SCALE and weight: K-Spacing Value to Generate K-Mesh: 0.03
   0.00000000  0.00000000  0.00000000       0.021
   0.03188711  0.00000000  0.00000000       0.083
   0.06377422  0.00000000  0.00000000       0.042
   0.03188711  0.03188711  0.00000000       0.083
   0.06377422  0.03188711  0.00000000       0.083
   0.06377422  0.06377422  0.00000000       0.021
   0.00000000  0.00000000  0.02694103       0.042
   0.03188711  0.00000000  0.02694103       0.167
   0.06377422  0.00000000  0.02694103       0.083
   0.03188711  0.03188711  0.02694103       0.167
   0.06377422  0.03188711  0.02694103       0.167
   0.06377422  0.06377422  0.02694103       0.042
 
 k-points in reciprocal lattice and weights: K-Spacing Value to Generate K-Mesh: 0.03
   0.00000000  0.00000000  0.00000000       0.021
   0.25000000  0.00000000  0.00000000       0.083
   0.50000000  0.00000000  0.00000000       0.042
   0.25000000  0.25000000  0.00000000       0.083
   0.50000000  0.25000000  0.00000000       0.083
   0.50000000  0.50000000  0.00000000       0.021
   0.00000000  0.00000000  0.33333333       0.042
   0.25000000  0.00000000  0.33333333       0.167
   0.50000000  0.00000000  0.33333333       0.083
   0.25000000  0.25000000  0.33333333       0.167
   0.50000000  0.25000000  0.33333333       0.167
   0.50000000  0.50000000  0.33333333       0.042
 
 position of ions in fractional coordinates (direct lattice) 
   0.24887750  0.24887750  0.85499731
   0.75112250  0.24887750  0.85499731
   0.24887750  0.75112250  0.85499731
   0.75112250  0.75112250  0.85499731
   0.00000000  0.00000000  0.64598766
   0.50000000  0.00000000  0.64679774
   0.00000000  0.50000000  0.64679774
   0.50000000  0.50000000  0.64770494
   0.00000000  0.00000000  0.35401234
   0.50000000  0.00000000  0.35320226
   0.00000000  0.50000000  0.35320226
   0.50000000  0.50000000  0.35229506
   0.24887750  0.24887750  0.14500269
   0.75112250  0.24887750  0.14500269
   0.24887750  0.75112250  0.14500269
   0.75112250  0.75112250  0.14500269
   0.50000000  0.00000000  0.00000000
   0.00000000  0.50000000  0.00000000
   0.50000000  0.50000000  0.00000000
   0.25021125  0.25021125  0.50000000
   0.74978875  0.25021125  0.50000000
   0.25021125  0.74978875  0.50000000
   0.74978875  0.74978875  0.50000000
   0.00000000  0.24950732  0.75043654
   0.50000000  0.24964221  0.75142718
   0.00000000  0.75049268  0.75043654
   0.50000000  0.75035779  0.75142718
   0.24950732  0.00000000  0.75043654
   0.75049268  0.00000000  0.75043654
   0.24964221  0.50000000  0.75142718
   0.75035779  0.50000000  0.75142718
   0.24950732  0.00000000  0.24956346
   0.75049268  0.00000000  0.24956346
   0.24964221  0.50000000  0.24857282
   0.75035779  0.50000000  0.24857282
   0.00000000  0.24950732  0.24956346
   0.50000000  0.24964221  0.24857282
   0.00000000  0.75049268  0.24956346
   0.50000000  0.75035779  0.24857282
   0.00000000  0.00000000  0.00000000
 
 position of ions in cartesian coordinates  (Angst):
   1.94148297  1.94148297 10.52573362
   5.85947529  1.94148297 10.52573362
   1.94148297  5.85947529 10.52573362
   5.85947529  5.85947529 10.52573362
   0.00000000  0.00000000  7.95264966
   3.90047913  0.00000000  7.96262240
   0.00000000  3.90047913  7.96262240
   3.90047913  3.90047913  7.97379074
   0.00000000  0.00000000  4.35818864
   3.90047913  0.00000000  4.34821590
   0.00000000  3.90047913  4.34821590
   3.90047913  3.90047913  4.33704756
   1.94148297  1.94148297  1.78510468
   5.85947529  1.94148297  1.78510468
   1.94148297  5.85947529  1.78510468
   5.85947529  5.85947529  1.78510468
   3.90047913  0.00000000  0.00000000
   0.00000000  3.90047913  0.00000000
   3.90047913  3.90047913  0.00000000
   1.95188752  1.95188752  6.15541915
   5.84907073  1.95188752  6.15541915
   1.95188752  5.84907073  6.15541915
   5.84907073  5.84907073  6.15541915
   0.00000000  1.94639617  9.23850295
   3.90047913  1.94744846  9.25069852
   0.00000000  5.85456209  9.23850295
   3.90047913  5.85350980  9.25069852
   1.94639617  0.00000000  9.23850295
   5.85456209  0.00000000  9.23850295
   1.94744846  3.90047913  9.25069852
   5.85350980  3.90047913  9.25069852
   1.94639617  0.00000000  3.07233535
   5.85456209  0.00000000  3.07233535
   1.94744846  3.90047913  3.06013977
   5.85350980  3.90047913  3.06013977
   0.00000000  1.94639617  3.07233535
   3.90047913  1.94744846  3.06013977
   0.00000000  5.85456209  3.07233535
   3.90047913  5.85350980  3.06013977
   0.00000000  0.00000000  0.00000000
 


--------------------------------------------------------------------------------------------------------


 k-point     1 :   0.0000 0.0000 0.0000  plane waves:   20165
 k-point     2 :   0.2500 0.0000 0.0000  plane waves:   20151
 k-point     3 :   0.5000 0.0000 0.0000  plane waves:   20118
 k-point     4 :   0.2500 0.2500 0.0000  plane waves:   20197
 k-point     5 :   0.5000 0.2500 0.0000  plane waves:   20152
 k-point     6 :   0.5000 0.5000 0.0000  plane waves:   20136
 k-point     7 :   0.0000 0.0000 0.3333  plane waves:   20218
 k-point     8 :   0.2500 0.0000 0.3333  plane waves:   20184
 k-point     9 :   0.5000 0.0000 0.3333  plane waves:   20142
 k-point    10 :   0.2500 0.2500 0.3333  plane waves:   20155
 k-point    11 :   0.5000 0.2500 0.3333  plane waves:   20156
 k-point    12 :   0.5000 0.5000 0.3333  plane waves:   20124

 maximum and minimum number of plane-waves per node :      2258     2222

 maximum number of plane-waves:     20218
 maximum index in each direction: 
   IXMAX=   14   IYMAX=   14   IZMAX=   22
   IXMIN=  -15   IYMIN=  -14   IZMIN=  -23


 parallel 3D FFT for wavefunctions:
    minimum data exchange during FFTs selected (reduces bandwidth)
 parallel 3D FFT for charge:
    minimum data exchange during FFTs selected (reduces bandwidth)


 total amount of memory used by VASP MPI-rank0    94155. kBytes
=======================================================================

   base      :      30000. kBytes
   nonl-proj :      16976. kBytes
   fftplans  :      13004. kBytes
   grid      :       8308. kBytes
   one-center:         77. kBytes
   wavefun   :      25790. kBytes
 
     INWAV:  cpu time      0.0000: real time      0.0000
 Broyden mixing: mesh for mixing (old mesh)
   NGX = 29   NGY = 29   NGZ = 45
  (NGX  =120   NGY  =120   NGZ  =192)
  gives a total of  37845 points

 initial charge density was supplied:
 charge density of overlapping atoms calculated
 number of electron     384.0000000 magnetization 
 keeping initial charge density in first step


--------------------------------------------------------------------------------------------------------


 Maximum index for augmentation-charges         5276 (set IRDMAX)


--------------------------------------------------------------------------------------------------------


 First call to EWALD:  gamma=   0.195
 Maximum number of real-space cells 3x 3x 2
 Maximum number of reciprocal cells 2x 2x 4

    FEWALD:  cpu time      0.0029: real time      0.0029


--------------------------------------- Ionic step        1  -------------------------------------------




--------------------------------------- Iteration      1(   1)  ---------------------------------------


    POTLOK:  cpu time      0.1785: real time      0.1788
    SETDIJ:  cpu time      0.6816: real time      0.6817
     EDDAV:  cpu time     32.0165: real time     32.0360
       DOS:  cpu time      0.0018: real time      0.0018
    --------------------------------------------
      LOOP:  cpu time     32.8783: real time     32.8983

 eigenvalue-minimisations  :  5568
 total energy-change (2. order) : 0.5665691E+04  (-0.1751475E+05)
 number of electron     384.0000000 magnetization 
 augmentation part      384.0000000 magnetization 

 Free energy of the ion-electron system (eV)
  ---------------------------------------------------
  alpha Z        PSCENC =      1348.35728886
  Ewald energy   TEWEN  =    -29655.93237831
  -Hartree energ DENC   =    -11265.52672832
  -exchange      EXHF   =         0.00000000
  -V(xc)+E(xc)   XCENC  =      1235.75755274
  PAW double counting   =     34040.00696010   -33495.80632930
  entropy T*S    EENTRO =        -0.00985755
  eigenvalues    EBANDS =      3117.19307460
  atomic energy  EATOM  =     40341.65184589
  Solvation  Ediel_sol  =         0.00000000
  ---------------------------------------------------
  free energy    TOTEN  =      5665.69142871 eV

  energy without entropy =     5665.70128627  energy(sigma->0) =     5665.69635749


--------------------------------------------------------------------------------------------------------




--------------------------------------- Iteration      1(   2)  ---------------------------------------


     EDDAV:  cpu time     32.0495: real time     32.0647
       DOS:  cpu time      0.0021: real time      0.0022
    --------------------------------------------
      LOOP:  cpu time     32.0516: real time     32.0669

 eigenvalue-minimisations  :  5576
 total energy-change (2. order) :-0.4691141E+04  (-0.4552357E+04)
 number of electron     384.0000000 magnetization 
 augmentation part      384.0000000 magnetization 

 Free energy of the ion-electron system (eV)
  ---------------------------------------------------
  alpha Z        PSCENC =      1348.35728886
  Ewald energy   TEWEN  =    -29655.93237831
  -Hartree energ DENC   =    -11265.52672832
  -exchange      EXHF   =         0.00000000
  -V(xc)+E(xc)   XCENC  =      1235.75755274
  PAW double counting   =     34040.00696010   -33495.80632930
  entropy T*S    EENTRO =        -0.00792389
  eigenvalues    EBANDS =     -1573.95026235
  atomic energy  EATOM  =     40341.65184589
  Solvation  Ediel_sol  =         0.00000000
  ---------------------------------------------------
  free energy    TOTEN  =       974.55002543 eV

  energy without entropy =      974.55794932  energy(sigma->0) =      974.55398737


--------------------------------------------------------------------------------------------------------




--------------------------------------- Iteration      1(   3)  ---------------------------------------


     EDDAV:  cpu time     34.6005: real time     34.6336
       DOS:  cpu time      0.0014: real time      0.0016
    --------------------------------------------
      LOOP:  cpu time     34.6020: real time     34.6351

 eigenvalue-minimisations  :  6208
 total energy-change (2. order) :-0.1083646E+04  (-0.1009842E+04)
 number of electron     384.0000000 magnetization 
 augmentation part      384.0000000 magnetization 

 Free energy of the ion-electron system (eV)
  ---------------------------------------------------
  alpha Z        PSCENC =      1348.35728886
  Ewald energy   TEWEN  =    -29655.93237831
  -Hartree energ DENC   =    -11265.52672832
  -exchange      EXHF   =         0.00000000
  -V(xc)+E(xc)   XCENC  =      1235.75755274
  PAW double counting   =     34040.00696010   -33495.80632930
  entropy T*S    EENTRO =        -0.00000000
  eigenvalues    EBANDS =     -2657.60377716
  atomic energy  EATOM  =     40341.65184589
  Solvation  Ediel_sol  =         0.00000000
  ---------------------------------------------------
  free energy    TOTEN  =      -109.09556549 eV

  energy without entropy =     -109.09556549  energy(sigma->0) =     -109.09556549


--------------------------------------------------------------------------------------------------------




--------------------------------------- Iteration      1(   4)  ---------------------------------------


     EDDAV:  cpu time     36.5850: real time     36.5957
       DOS:  cpu time      0.0020: real time      0.0022
    --------------------------------------------
      LOOP:  cpu time     36.5870: real time     36.5978

 eigenvalue-minimisations  :  6688
 total energy-change (2. order) :-0.1280642E+03  (-0.1241104E+03)
 number of electron     384.0000000 magnetization 
 augmentation part      384.0000000 magnetization 

 Free energy of the ion-electron system (eV)
  ---------------------------------------------------
  alpha Z        PSCENC =      1348.35728886
  Ewald energy   TEWEN  =    -29655.93237831
  -Hartree energ DENC   =    -11265.52672832
  -exchange      EXHF   =         0.00000000
  -V(xc)+E(xc)   XCENC  =      1235.75755274
  PAW double counting   =     34040.00696010   -33495.80632930
  entropy T*S    EENTRO =        -0.00000000
  eigenvalues    EBANDS =     -2785.66796737
  atomic energy  EATOM  =     40341.65184589
  Solvation  Ediel_sol  =         0.00000000
  ---------------------------------------------------
  free energy    TOTEN  =      -237.15975570 eV

  energy without entropy =     -237.15975570  energy(sigma->0) =     -237.15975570


--------------------------------------------------------------------------------------------------------




--------------------------------------- Iteration      1(   5)  ---------------------------------------


     EDDAV:  cpu time     36.4172: real time     36.4379
       DOS:  cpu time      0.0017: real time      0.0018
    CHARGE:  cpu time      1.2887: real time      1.2890
    MIXING:  cpu time      0.0064: real time      0.0064
    --------------------------------------------
      LOOP:  cpu time     37.7140: real time     37.7351

 eigenvalue-minimisations  :  6656
 total energy-change (2. order) :-0.5912475E+01  (-0.5833683E+01)
 number of electron     384.0000010 magnetization 
 augmentation part       98.5199877 magnetization 

 Broyden mixing:
  rms(total) = 0.34202E+01    rms(broyden)= 0.34196E+01
  rms(prec ) = 0.43697E+01
  weight for this iteration     100.00

 Free energy of the ion-electron system (eV)
  ---------------------------------------------------
  alpha Z        PSCENC =      1348.35728886
  Ewald energy   TEWEN  =    -29655.93237831
  -Hartree energ DENC   =    -11265.52672832
  -exchange      EXHF   =         0.00000000
  -V(xc)+E(xc)   XCENC  =      1235.75755274
  PAW double counting   =     34040.00696010   -33495.80632930
  entropy T*S    EENTRO =        -0.00000000
  eigenvalues    EBANDS =     -2791.58044264
  atomic energy  EATOM  =     40341.65184589
  Solvation  Ediel_sol  =         0.00000000
  ---------------------------------------------------
  free energy    TOTEN  =      -243.07223097 eV

  energy without entropy =     -243.07223097  energy(sigma->0) =     -243.07223097


--------------------------------------------------------------------------------------------------------




--------------------------------------- Iteration      1(   6)  ---------------------------------------


    POTLOK:  cpu time      0.1772: real time      0.1773
    SETDIJ:  cpu time      0.6828: real time      0.6829
     EDDAV:  cpu time     40.8116: real time     40.8391
       DOS:  cpu time      0.0018: real time      0.0019
    CHARGE:  cpu time      1.2912: real time      1.2920
    MIXING:  cpu time      0.0057: real time      0.0057
    --------------------------------------------
      LOOP:  cpu time     42.9704: real time     42.9989

 eigenvalue-minimisations  :  7736
 total energy-change (2. order) : 0.3423898E+02  (-0.1447426E+02)
 number of electron     384.0000009 magnetization 
 augmentation part       95.1739001 magnetization 

 Broyden mixing:
  rms(total) = 0.13461E+01    rms(broyden)= 0.13446E+01
  rms(prec ) = 0.16122E+01
  weight for this iteration     100.00

 eigenvalues of (default mixing * dielectric matrix)
  average eigenvalue GAMMA=   0.7663
  0.7663

 Free energy of the ion-electron system (eV)
  ---------------------------------------------------
  alpha Z        PSCENC =      1348.35728886
  Ewald energy   TEWEN  =    -29655.93237831
  -Hartree energ DENC   =    -11512.74316452
  -exchange      EXHF   =         0.00000000
  -V(xc)+E(xc)   XCENC  =      1255.49766206
  PAW double counting   =     34710.14360782   -34123.51292831
  entropy T*S    EENTRO =        -0.00000000
  eigenvalues    EBANDS =     -2572.29518068
  atomic energy  EATOM  =     40341.65184589
  Solvation  Ediel_sol  =         0.00000000
  ---------------------------------------------------
  free energy    TOTEN  =      -208.83324719 eV

  energy without entropy =     -208.83324719  energy(sigma->0) =     -208.83324719


--------------------------------------------------------------------------------------------------------




--------------------------------------- Iteration      1(   7)  ---------------------------------------


    POTLOK:  cpu time      0.1768: real time      0.1769
    SETDIJ:  cpu time      0.6845: real time      0.6852
     EDDAV:  cpu time     34.3979: real time     34.4210
       DOS:  cpu time      0.0024: real time      0.0025
    CHARGE:  cpu time      1.2889: real time      1.2892
    MIXING:  cpu time      0.0066: real time      0.0066
    --------------------------------------------
      LOOP:  cpu time     36.5570: real time     36.5814

 eigenvalue-minimisations  :  6152
 total energy-change (2. order) : 0.7732871E-01  (-0.2938146E+01)
 number of electron     384.0000009 magnetization 
 augmentation part       95.0028417 magnetization 

 Broyden mixing:
  rms(total) = 0.81397E+00    rms(broyden)= 0.81397E+00
  rms(prec ) = 0.89168E+00
  weight for this iteration     100.00

 eigenvalues of (default mixing * dielectric matrix)
  average eigenvalue GAMMA=   1.1187
  1.1187  1.1187

 Free energy of the ion-electron system (eV)
  ---------------------------------------------------
  alpha Z        PSCENC =      1348.35728886
  Ewald energy   TEWEN  =    -29655.93237831
  -Hartree energ DENC   =    -11424.80470428
  -exchange      EXHF   =         0.00000000
  -V(xc)+E(xc)   XCENC  =      1252.21895034
  PAW double counting   =     35484.90552366   -34891.42484021
  entropy T*S    EENTRO =        -0.00000000
  eigenvalues    EBANDS =     -2663.72760444
  atomic energy  EATOM  =     40341.65184589
  Solvation  Ediel_sol  =         0.00000000
  ---------------------------------------------------
  free energy    TOTEN  =      -208.75591848 eV

  energy without entropy =     -208.75591848  energy(sigma->0) =     -208.75591848


--------------------------------------------------------------------------------------------------------




--------------------------------------- Iteration      1(   8)  ---------------------------------------


    POTLOK:  cpu time      0.1777: real time      0.1778
    SETDIJ:  cpu time      0.6844: real time      0.6843
     EDDAV:  cpu time     42.1797: real time     42.1805
       DOS:  cpu time      0.0019: real time      0.0020
    CHARGE:  cpu time      1.2894: real time      1.2896
    MIXING:  cpu time      0.0067: real time      0.0067
    --------------------------------------------
      LOOP:  cpu time     44.3398: real time     44.3409

 eigenvalue-minimisations  :  8072
 total energy-change (2. order) :-0.1404897E+00  (-0.5936521E+00)
 number of electron     384.0000009 magnetization 
 augmentation part       95.3410705 magnetization 

 Broyden mixing:
  rms(total) = 0.35440E+00    rms(broyden)= 0.35425E+00
  rms(prec ) = 0.41946E+00
  weight for this iteration     100.00

 eigenvalues of (default mixing * dielectric matrix)
  average eigenvalue GAMMA=   1.3130
  2.2535  0.8427  0.8427

 Free energy of the ion-electron system (eV)
  ---------------------------------------------------
  alpha Z        PSCENC =      1348.35728886
  Ewald energy   TEWEN  =    -29655.93237831
  -Hartree energ DENC   =    -11410.11039677
  -exchange      EXHF   =         0.00000000
  -V(xc)+E(xc)   XCENC  =      1251.31255385
  PAW double counting   =     35892.18178182   -35293.29477436
  entropy T*S    EENTRO =        -0.00000000
  eigenvalues    EBANDS =     -2683.06232916
  atomic energy  EATOM  =     40341.65184589
  Solvation  Ediel_sol  =         0.00000000
  ---------------------------------------------------
  free energy    TOTEN  =      -208.89640819 eV

  energy without entropy =     -208.89640819  energy(sigma->0) =     -208.89640819


--------------------------------------------------------------------------------------------------------




--------------------------------------- Iteration      1(   9)  ---------------------------------------


    POTLOK:  cpu time      0.1774: real time      0.1775
    SETDIJ:  cpu time      0.6827: real time      0.6829
     EDDAV:  cpu time     39.6144: real time     39.6154
       DOS:  cpu time      0.0019: real time      0.0020
    CHARGE:  cpu time      1.2898: real time      1.2900
    MIXING:  cpu time      0.0067: real time      0.0067
    --------------------------------------------
      LOOP:  cpu time     41.7729: real time     41.7745

 eigenvalue-minimisations  :  7440
 total energy-change (2. order) : 0.8192208E-01  (-0.6189340E-01)
 number of electron     384.0000009 magnetization 
 augmentation part       95.0343996 magnetization 

 Broyden mixing:
  rms(total) = 0.14684E+00    rms(broyden)= 0.14682E+00
  rms(prec ) = 0.17458E+00
  weight for this iteration     100.00

 eigenvalues of (default mixing * dielectric matrix)
  average eigenvalue GAMMA=   1.3182
  2.4698  1.1364  0.8333  0.8333

 Free energy of the ion-electron system (eV)
  ---------------------------------------------------
  alpha Z        PSCENC =      1348.35728886
  Ewald energy   TEWEN  =    -29655.93237831
  -Hartree energ DENC   =    -11438.26354703
  -exchange      EXHF   =         0.00000000
  -V(xc)+E(xc)   XCENC  =      1253.14451675
  PAW double counting   =     36291.85274282   -35687.85760560
  entropy T*S    EENTRO =        -0.00000000
  eigenvalues    EBANDS =     -2661.76734950
  atomic energy  EATOM  =     40341.65184589
  Solvation  Ediel_sol  =         0.00000000
  ---------------------------------------------------
  free energy    TOTEN  =      -208.81448611 eV

  energy without entropy =     -208.81448611  energy(sigma->0) =     -208.81448611


--------------------------------------------------------------------------------------------------------




--------------------------------------- Iteration      1(  10)  ---------------------------------------


    POTLOK:  cpu time      0.1770: real time      0.1771
    SETDIJ:  cpu time      0.6823: real time      0.6823
     EDDAV:  cpu time     37.7450: real time     37.7446
       DOS:  cpu time      0.0012: real time      0.0013
    CHARGE:  cpu time      1.2885: real time      1.2887
    MIXING:  cpu time      0.0069: real time      0.0070
    --------------------------------------------
      LOOP:  cpu time     39.9009: real time     39.9009

 eigenvalue-minimisations  :  6976
 total energy-change (2. order) : 0.1105594E-01  (-0.1727989E-01)
 number of electron     384.0000009 magnetization 
 augmentation part       95.0383833 magnetization 

 Broyden mixing:
  rms(total) = 0.37118E-01    rms(broyden)= 0.37100E-01
  rms(prec ) = 0.38924E-01
  weight for this iteration     100.00

 eigenvalues of (default mixing * dielectric matrix)
  average eigenvalue GAMMA=   1.1723
  2.4217  1.0633  0.8328  0.8328  0.7110

 Free energy of the ion-electron system (eV)
  ---------------------------------------------------
  alpha Z        PSCENC =      1348.35728886
  Ewald energy   TEWEN  =    -29655.93237831
  -Hartree energ DENC   =    -11430.38183724
  -exchange      EXHF   =         0.00000000
  -V(xc)+E(xc)   XCENC  =      1252.85178018
  PAW double counting   =     36423.84439463   -35819.61774206
  entropy T*S    EENTRO =        -0.00000000
  eigenvalues    EBANDS =     -2669.57678214
  atomic energy  EATOM  =     40341.65184589
  Solvation  Ediel_sol  =         0.00000000
  ---------------------------------------------------
  free energy    TOTEN  =      -208.80343017 eV

  energy without entropy =     -208.80343017  energy(sigma->0) =     -208.80343017


--------------------------------------------------------------------------------------------------------




--------------------------------------- Iteration      1(  11)  ---------------------------------------


    POTLOK:  cpu time      0.1766: real time      0.1767
    SETDIJ:  cpu time      0.6824: real time      0.6826
     EDDAV:  cpu time     38.5921: real time     38.5917
       DOS:  cpu time      0.0017: real time      0.0018
    CHARGE:  cpu time      1.2877: real time      1.2886
    MIXING:  cpu time      0.0075: real time      0.0075
    --------------------------------------------
      LOOP:  cpu time     40.7480: real time     40.7490

 eigenvalue-minimisations  :  7176
 total energy-change (2. order) :-0.2262312E-02  (-0.2186192E-02)
 number of electron     384.0000009 magnetization 
 augmentation part       95.0483433 magnetization 

 Broyden mixing:
  rms(total) = 0.33004E-01    rms(broyden)= 0.33002E-01
  rms(prec ) = 0.35444E-01
  weight for this iteration     100.00

 eigenvalues of (default mixing * dielectric matrix)
  average eigenvalue GAMMA=   1.3664
  2.1535  1.6124  1.6124  0.8290  0.8290  1.1622

 Free energy of the ion-electron system (eV)
  ---------------------------------------------------
  alpha Z        PSCENC =      1348.35728886
  Ewald energy   TEWEN  =    -29655.93237831
  -Hartree energ DENC   =    -11430.24947871
  -exchange      EXHF   =         0.00000000
  -V(xc)+E(xc)   XCENC  =      1252.86267251
  PAW double counting   =     36400.62940995   -35796.80770533
  entropy T*S    EENTRO =        -0.00000000
  eigenvalues    EBANDS =     -2669.31734735
  atomic energy  EATOM  =     40341.65184589
  Solvation  Ediel_sol  =         0.00000000
  ---------------------------------------------------
  free energy    TOTEN  =      -208.80569249 eV

  energy without entropy =     -208.80569249  energy(sigma->0) =     -208.80569249


--------------------------------------------------------------------------------------------------------




--------------------------------------- Iteration      1(  12)  ---------------------------------------


    POTLOK:  cpu time      0.1765: real time      0.1765
    SETDIJ:  cpu time      0.6842: real time      0.6854
     EDDAV:  cpu time     40.8877: real time     40.9139
       DOS:  cpu time      0.0013: real time      0.0015
    CHARGE:  cpu time      1.2861: real time      1.2879
    MIXING:  cpu time      0.0085: real time      0.0085
    --------------------------------------------
      LOOP:  cpu time     43.0443: real time     43.0737

 eigenvalue-minimisations  :  7760
 total energy-change (2. order) :-0.8871608E-03  (-0.7961924E-03)
 number of electron     384.0000009 magnetization 
 augmentation part       95.0205555 magnetization 

 Broyden mixing:
  rms(total) = 0.16992E-01    rms(broyden)= 0.16987E-01
  rms(prec ) = 0.20027E-01
  weight for this iteration     100.00

 eigenvalues of (default mixing * dielectric matrix)
  average eigenvalue GAMMA=   1.4014
  2.5361  2.4093  0.8146  0.8146  1.1296  1.1296  0.9760

 Free energy of the ion-electron system (eV)
  ---------------------------------------------------
  alpha Z        PSCENC =      1348.35728886
  Ewald energy   TEWEN  =    -29655.93237831
  -Hartree energ DENC   =    -11431.22191068
  -exchange      EXHF   =         0.00000000
  -V(xc)+E(xc)   XCENC  =      1252.96987167
  PAW double counting   =     36376.74096959   -35773.70038010
  entropy T*S    EENTRO =        -0.00000000
  eigenvalues    EBANDS =     -2667.67188658
  atomic energy  EATOM  =     40341.65184589
  Solvation  Ediel_sol  =         0.00000000
  ---------------------------------------------------
  free energy    TOTEN  =      -208.80657965 eV

  energy without entropy =     -208.80657965  energy(sigma->0) =     -208.80657965


--------------------------------------------------------------------------------------------------------




--------------------------------------- Iteration      1(  13)  ---------------------------------------


    POTLOK:  cpu time      0.1760: real time      0.1761
    SETDIJ:  cpu time      0.6814: real time      0.6818
     EDDAV:  cpu time     35.7812: real time     35.7862
       DOS:  cpu time      0.0021: real time      0.0022
    CHARGE:  cpu time      1.2883: real time      1.2884
    MIXING:  cpu time      0.0071: real time      0.0071
    --------------------------------------------
      LOOP:  cpu time     37.9361: real time     37.9418

 eigenvalue-minimisations  :  6488
 total energy-change (2. order) : 0.5802029E-04  (-0.8164589E-04)
 number of electron     384.0000009 magnetization 
 augmentation part       95.0205281 magnetization 

 Broyden mixing:
  rms(total) = 0.89740E-02    rms(broyden)= 0.89739E-02
  rms(prec ) = 0.10264E-01
  weight for this iteration     100.00

 eigenvalues of (default mixing * dielectric matrix)
  average eigenvalue GAMMA=   1.3862
  2.7043  2.4604  1.1717  0.9890  0.8294  0.8294  1.0528  1.0528

 Free energy of the ion-electron system (eV)
  ---------------------------------------------------
  alpha Z        PSCENC =      1348.35728886
  Ewald energy   TEWEN  =    -29655.93237831
  -Hartree energ DENC   =    -11430.73091625
  -exchange      EXHF   =         0.00000000
  -V(xc)+E(xc)   XCENC  =      1252.95529000
  PAW double counting   =     36369.00699676   -35766.29094604
  entropy T*S    EENTRO =        -0.00000000
  eigenvalues    EBANDS =     -2667.82370254
  atomic energy  EATOM  =     40341.65184589
  Solvation  Ediel_sol  =         0.00000000
  ---------------------------------------------------
  free energy    TOTEN  =      -208.80652163 eV

  energy without entropy =     -208.80652163  energy(sigma->0) =     -208.80652163


--------------------------------------------------------------------------------------------------------




--------------------------------------- Iteration      1(  14)  ---------------------------------------


    POTLOK:  cpu time      0.1768: real time      0.1768
    SETDIJ:  cpu time      0.6845: real time      0.6845
     EDDAV:  cpu time     36.8810: real time     36.8806
       DOS:  cpu time      0.0013: real time      0.0014
    CHARGE:  cpu time      1.2894: real time      1.2896
    MIXING:  cpu time      0.0072: real time      0.0072
    --------------------------------------------
      LOOP:  cpu time     39.0402: real time     39.0401

 eigenvalue-minimisations  :  6760
 total energy-change (2. order) : 0.4381578E-04  (-0.2779741E-04)
 number of electron     384.0000009 magnetization 
 augmentation part       95.0236893 magnetization 

 Broyden mixing:
  rms(total) = 0.45362E-02    rms(broyden)= 0.45354E-02
  rms(prec ) = 0.52047E-02
  weight for this iteration     100.00

 eigenvalues of (default mixing * dielectric matrix)
  average eigenvalue GAMMA=   1.3133
  2.6530  2.4313  1.2555  1.1423  1.1423  0.9804  0.8299  0.8299  0.5553

 Free energy of the ion-electron system (eV)
  ---------------------------------------------------
  alpha Z        PSCENC =      1348.35728886
  Ewald energy   TEWEN  =    -29655.93237831
  -Hartree energ DENC   =    -11430.65050659
  -exchange      EXHF   =         0.00000000
  -V(xc)+E(xc)   XCENC  =      1252.94782180
  PAW double counting   =     36365.27427081   -35762.55472723
  entropy T*S    EENTRO =        -0.00000000
  eigenvalues    EBANDS =     -2667.90009304
  atomic energy  EATOM  =     40341.65184589
  Solvation  Ediel_sol  =         0.00000000
  ---------------------------------------------------
  free energy    TOTEN  =      -208.80647781 eV

  energy without entropy =     -208.80647781  energy(sigma->0) =     -208.80647781


--------------------------------------------------------------------------------------------------------




--------------------------------------- Iteration      1(  15)  ---------------------------------------


    POTLOK:  cpu time      0.1772: real time      0.1773
    SETDIJ:  cpu time      0.6858: real time      0.6858
     EDDAV:  cpu time     43.5609: real time     43.5692
       DOS:  cpu time      0.0021: real time      0.0022
    CHARGE:  cpu time      1.2858: real time      1.2875
    MIXING:  cpu time      0.0077: real time      0.0077
    --------------------------------------------
      LOOP:  cpu time     45.7196: real time     45.7298

 eigenvalue-minimisations  :  8416
 total energy-change (2. order) : 0.1524655E-04  (-0.3444559E-05)
 number of electron     384.0000009 magnetization 
 augmentation part       95.0251156 magnetization 

 Broyden mixing:
  rms(total) = 0.29779E-02    rms(broyden)= 0.29776E-02
  rms(prec ) = 0.33100E-02
  weight for this iteration     100.00

 eigenvalues of (default mixing * dielectric matrix)
  average eigenvalue GAMMA=   1.3475
  2.6975  2.4632  1.2728  1.2728  1.1521  0.9534  0.8258  0.8258  1.0059  1.0059

 Free energy of the ion-electron system (eV)
  ---------------------------------------------------
  alpha Z        PSCENC =      1348.35728886
  Ewald energy   TEWEN  =    -29655.93237831
  -Hartree energ DENC   =    -11430.59213253
  -exchange      EXHF   =         0.00000000
  -V(xc)+E(xc)   XCENC  =      1252.94308719
  PAW double counting   =     36364.71840975   -35761.98075466
  entropy T*S    EENTRO =        -0.00000000
  eigenvalues    EBANDS =     -2667.97182874
  atomic energy  EATOM  =     40341.65184589
  Solvation  Ediel_sol  =         0.00000000
  ---------------------------------------------------
  free energy    TOTEN  =      -208.80646256 eV

  energy without entropy =     -208.80646256  energy(sigma->0) =     -208.80646256


--------------------------------------------------------------------------------------------------------




--------------------------------------- Iteration      1(  16)  ---------------------------------------


    POTLOK:  cpu time      0.1756: real time      0.1757
    SETDIJ:  cpu time      0.6823: real time      0.6828
     EDDAV:  cpu time     36.9802: real time     36.9851
       DOS:  cpu time      0.0017: real time      0.0018
    CHARGE:  cpu time      1.2887: real time      1.2896
    MIXING:  cpu time      0.0078: real time      0.0078
    --------------------------------------------
[...]
    180       5.1087      2.00000
    181       5.5052      2.00000
    182       5.5206      2.00000
    183       5.5206      2.00000
    184       5.5423      2.00000
    185       6.0110      2.00000
    186       6.0110      2.00000
    187       6.0309      2.00000
    188       6.0517      2.00000
    189       6.1225      2.00000
    190       6.1225      2.00000
    191       6.1372      2.00000
    192       6.1539      2.00000
    193       8.1876      0.00000
    194       8.2165      0.00000
    195       8.2165      0.00000
    196       8.2507      0.00000
    197       8.9569      0.00000
    198       8.9879      0.00000
    199       8.9879      0.00000
    200       9.0204      0.00000
    201       9.4022      0.00000
    202       9.4121      0.00000
    203       9.4320      0.00000
    204       9.4320      0.00000
    205       9.7159      0.00000
    206       9.7324      0.00000
    207       9.7582      0.00000
    208       9.7582      0.00000
    209       9.9877      0.00000
    210       9.9877      0.00000
    211      10.0276      0.00000
    212      10.0459      0.00000
    213      10.0624      0.00000
    214      10.0624      0.00000
    215      10.0635      0.00000
    216      10.0786      0.00000
    217      10.9137      0.00000
    218      10.9137      0.00000
    219      10.9357      0.00000
    220      10.9466      0.00000
    221      10.9899      0.00000
    222      10.9899      0.00000
    223      10.9946      0.00000
    224      10.9950      0.00000
    225      11.5509      0.00000
    226      11.5763      0.00000
    227      11.5763      0.00000
    228      11.6275      0.00000
    229      11.6429      0.00000
    230      11.6429      0.00000
    231      11.6801      0.00000
    232      11.6821      0.00000


--------------------------------------------------------------------------------------------------------


 soft charge-density along one line, spin component           1
         0         1         2         3         4         5         6         7         8         9
 total charge-density along one line
 
 pseudopotential strength for first ion, spin component:           1
-17.571   0.001   0.001   0.001  -0.000   3.850  -0.000  -0.000
  0.001 -17.555   0.001  -0.001  -0.001  -0.000   3.843  -0.000
  0.001   0.001 -17.579   0.001   0.000  -0.000  -0.000   3.857
  0.001  -0.001   0.001 -17.555   0.001  -0.000   0.000  -0.000
 -0.000  -0.001   0.000   0.001 -17.554   0.000   0.001  -0.000
  3.850  -0.000  -0.000  -0.000   0.000   5.850   0.000   0.000
 -0.000   3.843  -0.000   0.000   0.001   0.000   5.852   0.000
 -0.000  -0.000   3.857  -0.000  -0.000   0.000   0.000   5.851
 -0.000   0.000  -0.000   3.843  -0.001   0.000  -0.000   0.000
  0.000   0.001  -0.000  -0.001   3.841   0.000  -0.000   0.000
 -0.000   0.000   0.004   0.000   0.000   0.000  -0.000   0.004
  0.000  -0.000  -0.005  -0.000   0.000  -0.000   0.000  -0.005
  0.000  -0.017  -0.000  -0.000  -0.000   0.000   0.003   0.000
 -0.000   0.000  -0.020   0.000  -0.000  -0.000   0.000   0.003
  0.000  -0.000  -0.000  -0.017   0.000   0.000  -0.000   0.000
  0.000  -0.028  -0.000  -0.000  -0.000   0.000   0.003   0.000
 -0.000   0.000  -0.031   0.000  -0.000  -0.000   0.000  -0.000
  0.000  -0.000  -0.000  -0.028   0.000   0.000  -0.000   0.000
 total augmentation occupancy for first ion, spin component:           1
  1.999   0.000   0.000   0.000   0.000  -0.004   0.000   0.000   0.000   0.000  -0.000  -0.000  -0.000  -0.000  -0.000   0.000
  0.000   1.998  -0.000  -0.000  -0.000   0.000  -0.005   0.000  -0.000  -0.000   0.000   0.000   0.035  -0.000  -0.000  -0.012
  0.000  -0.000   2.000  -0.000  -0.000   0.000   0.000  -0.002   0.000   0.000   0.001   0.001   0.000   0.032   0.000  -0.000
  0.000  -0.000  -0.000   1.998   0.000   0.000  -0.000   0.000  -0.005   0.000   0.000   0.000  -0.000  -0.000   0.035   0.000
  0.000  -0.000  -0.000   0.000   1.998   0.000  -0.000   0.000   0.000  -0.007   0.000   0.000   0.000   0.000  -0.000  -0.000
 -0.004   0.000   0.000   0.000   0.000   0.021   0.000   0.000   0.000   0.000  -0.000  -0.000   0.002  -0.001   0.002  -0.000
  0.000  -0.005   0.000  -0.000  -0.000   0.000   0.046   0.000  -0.001  -0.000   0.000   0.001  -0.080   0.000  -0.002   0.011
  0.000   0.000  -0.002   0.000   0.000   0.000   0.000   0.016   0.000  -0.000   0.012  -0.005  -0.001   0.006  -0.001   0.000
  0.000  -0.000   0.000  -0.005   0.000   0.000  -0.001   0.000   0.046   0.000   0.000   0.001  -0.002   0.000  -0.080   0.000
  0.000  -0.000   0.000   0.000  -0.007   0.000  -0.000  -0.000   0.000   0.052   0.000  -0.000   0.001   0.000  -0.001  -0.000
 -0.000   0.000   0.001   0.000   0.000  -0.000   0.000   0.012   0.000   0.000   2.045  -0.026  -0.000   0.170  -0.000  -0.000
 -0.000   0.000   0.001   0.000   0.000  -0.000   0.001  -0.005   0.001  -0.000  -0.026   0.030   0.001  -0.078   0.001   0.000
 -0.000   0.035   0.000  -0.000   0.000   0.002  -0.080  -0.001  -0.002   0.001  -0.000   0.001   0.891   0.006  -0.006  -0.081
 -0.000  -0.000   0.032  -0.000   0.000  -0.001   0.000   0.006   0.000   0.000   0.170  -0.078   0.006   0.964   0.006  -0.001
 -0.000  -0.000   0.000   0.035  -0.000   0.002  -0.002  -0.001  -0.080  -0.001  -0.000   0.001  -0.006   0.006   0.891   0.000
  0.000  -0.012  -0.000   0.000  -0.000  -0.000   0.011   0.000   0.000  -0.000  -0.000   0.000  -0.081  -0.001   0.000   0.009
  0.000   0.000  -0.019   0.000  -0.000   0.000   0.000  -0.000   0.000   0.000  -0.012   0.008  -0.001  -0.082  -0.001   0.000
  0.000   0.000  -0.000  -0.012   0.000  -0.000   0.000   0.000   0.011   0.000  -0.000   0.000   0.000  -0.001  -0.081  -0.000


------------------------ aborting loop because EDIFF is reached ----------------------------------------


    CHARGE:  cpu time      1.2873: real time      1.2884
    FORLOC:  cpu time      0.0162: real time      0.0162
    FORNL :  cpu time      6.1103: real time      6.1103
    STRESS:  cpu time     19.8758: real time     19.8802
    FORCOR:  cpu time      0.1784: real time      0.1786
    FORHAR:  cpu time      0.0585: real time      0.0585
    MIXING:  cpu time      0.0051: real time      0.0051
    OFIELD:  cpu time      0.0001: real time      0.0001

  FORCE on cell =-STRESS in cart. coord.  units (eV):
  Direction    XX          YY          ZZ          XY          YZ          ZX
  --------------------------------------------------------------------------------------
  Alpha Z  1348.35729  1348.35729  1348.35729
  Ewald   -8214.10903 -8214.10903-13227.82121    -0.00000    -0.00000    -0.00000
  Hartree  5290.90641  5290.90641   848.70812    -0.00000    -0.00000    -0.00000
  E(xc)   -1827.05331 -1827.05331 -1828.61849    -0.00000    -0.00000     0.00000
  Local   -5301.19890 -5301.19890  4164.84335     0.00000    -0.00000     0.00000
  n-local  1579.44889  1586.77756  1590.22616     0.52635    -0.05580     0.11794
  augment  2176.44866  2176.44866  2161.00026    -0.00000     0.00000     0.00000
  Kinetic  4945.55096  4954.02586  4948.05583    -3.61545     0.45869    -0.54767
  Fock        0.00000     0.00000     0.00000     0.00000     0.00000     0.00000
  -------------------------------------------------------------------------------------
  Total       6.25274     6.25274     4.75130     0.00000     0.00000     0.00000
  in kB      13.37203    13.37203    10.16108     0.00000     0.00000     0.00000
  external pressure =       12.30 kB  Pullay stress =        0.00 kB


 VOLUME and BASIS-vectors are now :
 -----------------------------------------------------------------------------
  energy-cutoff  :      520.00
  volume of cell :      749.18
      direct lattice vectors                 reciprocal lattice vectors
     7.800958253  0.000000000  0.000000000     0.128189380  0.000000000  0.000000000
     0.000000000  7.800958253  0.000000000     0.000000000  0.128189380  0.000000000
     0.000000000  0.000000000 12.310838297     0.000000000  0.000000000  0.081229237

  length of vectors
     7.800958253  7.800958253 12.310838297     0.128189380  0.128189380  0.081229237


 FORCES acting on ions
    electron-ion (+dipol)            ewald-force                    non-local-force                 convergence-correction
 -----------------------------------------------------------------------------------------------
   -.626E+01 -.626E+01 -.435E+03   0.614E+01 0.614E+01 0.446E+03   0.112E+00 0.112E+00 -.110E+02   -.195E-07 -.195E-07 -.308E-06
   0.626E+01 -.626E+01 -.435E+03   -.614E+01 0.614E+01 0.446E+03   -.112E+00 0.112E+00 -.110E+02   0.195E-07 -.195E-07 -.308E-06
   -.626E+01 0.626E+01 -.435E+03   0.614E+01 -.614E+01 0.446E+03   0.112E+00 -.112E+00 -.110E+02   -.195E-07 0.195E-07 -.308E-06
   0.626E+01 0.626E+01 -.435E+03   -.614E+01 -.614E+01 0.446E+03   -.112E+00 -.112E+00 -.110E+02   0.195E-07 0.195E-07 -.308E-06
   -.776E-13 0.125E-11 0.466E+03   0.284E-13 0.000E+00 -.477E+03   -.681E-19 0.110E-17 0.108E+02   0.336E-11 -.517E-11 -.514E-05
   0.660E-12 0.224E-11 0.465E+03   -.114E-12 -.657E-13 -.476E+03   0.163E-17 -.951E-19 0.108E+02   -.324E-11 -.499E-11 0.740E-06
   -.985E-13 0.132E-11 0.465E+03   -.568E-13 0.000E+00 -.476E+03   0.105E-17 0.582E-18 0.108E+02   0.193E-11 0.102E-10 0.740E-06
   0.727E-12 0.525E-12 0.464E+03   -.284E-13 -.275E-13 -.475E+03   0.122E-17 0.515E-18 0.109E+02   -.182E-11 0.568E-11 0.658E-05
   -.310E-14 -.431E-12 -.466E+03   0.853E-13 0.000E+00 0.477E+03   0.102E-18 0.259E-18 -.108E+02   -.617E-11 -.644E-12 0.514E-05
   0.822E-12 0.537E-12 -.465E+03   -.199E-12 0.320E-13 0.476E+03   -.164E-17 0.567E-20 -.108E+02   0.613E-11 0.648E-11 -.740E-06
   0.248E-13 -.143E-12 -.465E+03   0.142E-12 -.568E-13 0.476E+03   -.691E-18 -.728E-18 -.108E+02   -.124E-10 0.243E-13 -.740E-06
   0.835E-12 -.903E-11 -.464E+03   -.284E-13 -.817E-13 0.475E+03   -.138E-17 0.496E-18 -.109E+02   0.123E-10 -.381E-11 -.658E-05
   -.626E+01 -.626E+01 0.435E+03   0.614E+01 0.614E+01 -.446E+03   0.112E+00 0.112E+00 0.110E+02   -.195E-07 -.195E-07 0.308E-06
   0.626E+01 -.626E+01 0.435E+03   -.614E+01 0.614E+01 -.446E+03   -.112E+00 0.112E+00 0.110E+02   0.195E-07 -.194E-07 0.308E-06
   -.626E+01 0.626E+01 0.435E+03   0.614E+01 -.614E+01 -.446E+03   0.112E+00 -.112E+00 0.110E+02   -.195E-07 0.195E-07 0.308E-06
   0.626E+01 0.626E+01 0.435E+03   -.614E+01 -.614E+01 -.446E+03   -.112E+00 -.112E+00 0.110E+02   0.195E-07 0.194E-07 0.308E-06
   0.389E-13 0.725E-13 0.152E-11   -.853E-13 0.426E-13 0.213E-13   0.152E-26 0.342E-26 0.164E-27   -.262E-11 0.121E-11 0.315E-11
   0.503E-14 0.421E-13 -.558E-13   0.853E-13 0.000E+00 0.533E-13   0.305E-26 -.211E-26 -.240E-27   0.247E-11 -.154E-11 0.419E-11
   0.408E-13 -.524E-12 0.249E-12   0.568E-13 0.000E+00 0.249E-13   -.702E-27 -.462E-27 0.295E-27   -.244E-11 -.104E-11 0.322E-11
   -.206E+01 -.206E+01 -.556E-07   0.207E+01 0.207E+01 -.419E-13   -.104E-01 -.104E-01 -.307E-20   -.333E-05 -.333E-05 -.410E-11
   0.206E+01 -.206E+01 -.132E-10   -.207E+01 0.207E+01 -.170E-13   0.104E-01 -.104E-01 0.485E-20   0.333E-05 -.333E-05 -.849E-11
   -.206E+01 0.206E+01 0.980E-12   0.207E+01 -.207E+01 -.312E-13   -.104E-01 0.104E-01 -.196E-20   -.333E-05 0.333E-05 -.184E-11
   0.206E+01 0.206E+01 0.556E-07   -.207E+01 -.207E+01 -.206E-13   0.104E-01 0.104E-01 0.386E-20   0.333E-05 0.333E-05 -.437E-11
   0.114E-13 -.238E+01 0.868E+01   -.568E-13 0.238E+01 -.883E+01   -.319E-18 -.307E-02 0.146E+00   0.243E-11 0.587E-06 -.555E-06
   0.271E-12 -.178E+01 0.385E+01   -.114E-12 0.177E+01 -.371E+01   -.336E-18 0.953E-02 -.141E+00   -.226E-11 0.678E-06 0.115E-05
   0.155E-13 0.238E+01 0.868E+01   -.284E-13 -.238E+01 -.883E+01   -.457E-18 0.307E-02 0.146E+00   0.690E-12 -.587E-06 -.555E-06
   0.256E-12 0.178E+01 0.385E+01   -.853E-13 -.177E+01 -.371E+01   0.660E-18 -.953E-02 -.141E+00   -.539E-12 -.678E-06 0.115E-05
   -.238E+01 0.160E-11 0.868E+01   0.238E+01 -.178E-13 -.883E+01   -.307E-02 0.428E-18 0.146E+00   0.587E-06 0.422E-12 -.555E-06
   0.238E+01 -.272E-13 0.868E+01   -.238E+01 -.568E-13 -.883E+01   0.307E-02 0.587E-19 0.146E+00   -.587E-06 -.146E-11 -.555E-06
   -.178E+01 -.217E-12 0.385E+01   0.177E+01 0.249E-13 -.371E+01   0.953E-02 -.662E-19 -.141E+00   0.678E-06 0.136E-11 0.115E-05
   0.178E+01 0.140E-11 0.385E+01   -.177E+01 0.284E-13 -.371E+01   -.953E-02 -.236E-18 -.141E+00   -.678E-06 0.453E-11 0.115E-05
   -.238E+01 0.636E-13 -.868E+01   0.238E+01 0.213E-13 0.883E+01   -.307E-02 -.687E-19 -.146E+00   0.587E-06 0.165E-11 0.555E-06
   0.238E+01 -.494E-11 -.868E+01   -.238E+01 0.000E+00 0.883E+01   0.307E-02 0.889E-19 -.146E+00   -.587E-06 0.165E-11 0.555E-06
   -.178E+01 -.109E-13 -.385E+01   0.177E+01 0.639E-13 0.371E+01   0.953E-02 -.243E-18 0.141E+00   0.678E-06 -.255E-12 -.115E-05
   0.178E+01 0.183E-11 -.385E+01   -.177E+01 0.426E-13 0.371E+01   -.953E-02 0.722E-19 0.141E+00   -.678E-06 -.162E-11 -.115E-05
   0.127E-13 -.238E+01 -.868E+01   -.711E-13 0.238E+01 0.883E+01   0.465E-18 -.307E-02 -.146E+00   -.370E-11 0.587E-06 0.555E-06
   0.291E-12 -.178E+01 -.385E+01   0.284E-13 0.177E+01 0.371E+01   0.428E-18 0.953E-02 0.141E+00   0.351E-11 0.678E-06 -.115E-05
   0.271E-13 0.238E+01 -.868E+01   -.995E-13 -.238E+01 0.883E+01   0.237E-18 0.307E-02 -.146E+00   -.293E-11 -.587E-06 0.555E-06
   0.272E-12 0.178E+01 -.385E+01   0.426E-13 -.177E+01 0.371E+01   -.657E-18 -.953E-02 0.141E+00   0.274E-11 -.678E-06 -.115E-05
   0.713E-14 0.505E-13 -.688E-13   -.568E-13 0.142E-13 0.142E-13   -.191E-26 0.243E-26 0.161E-27   0.274E-11 0.149E-11 0.407E-11
 -----------------------------------------------------------------------------------------------
   0.197E-10 0.223E-10 -.166E-10   -.199E-12 -.107E-13 0.540E-12   -.134E-16 -.260E-16 0.178E-14   0.109E-11 0.476E-11 0.429E-10
 
 
 POSITION                                       TOTAL-FORCE (eV/Angst)
 -----------------------------------------------------------------------------------
      1.94148      1.94148     10.52573         0.000002      0.000002     -0.000001
      5.85947      1.94148     10.52573        -0.000002      0.000002     -0.000001
      1.94148      5.85947     10.52573         0.000002     -0.000002     -0.000001
      5.85947      5.85947     10.52573        -0.000002     -0.000002     -0.000001
      0.00000      7.80096      7.95266        -0.000000     -0.000000      0.000006
      3.90048      7.80096      7.96262        -0.000000     -0.000000      0.000000
      0.00000      3.90048      7.96262        -0.000000     -0.000000      0.000000
      3.90048      3.90048      7.97379        -0.000000     -0.000000     -0.000004
      0.00000      0.00000      4.35818        -0.000000     -0.000000     -0.000006
      3.90048      7.80096      4.34822        -0.000000     -0.000000     -0.000000
      0.00000      3.90048      4.34822        -0.000000     -0.000000     -0.000000
      3.90048      3.90048      4.33705        -0.000000     -0.000000      0.000004
      1.94148      1.94148      1.78511         0.000002      0.000002      0.000001
      5.85947      1.94148      1.78511        -0.000002      0.000002      0.000001
      1.94148      5.85947      1.78511         0.000002     -0.000002      0.000001
      5.85947      5.85947      1.78511        -0.000002     -0.000002      0.000001
      3.90048      7.80096      0.00000        -0.000000     -0.000000      0.000000
      0.00000      3.90048      0.00000        -0.000000     -0.000000      0.000000
      3.90048      3.90048      0.00000        -0.000000     -0.000000      0.000000
      1.95189      1.95189      6.15542         0.000000      0.000000      0.000000
      5.84906      1.95189      6.15542        -0.000000      0.000000      0.000000
      1.95189      5.84906      6.15542         0.000000     -0.000000      0.000000
      5.84906      5.84906      6.15542        -0.000000     -0.000000      0.000000
      0.00000      1.94640      9.23850        -0.000000     -0.000001     -0.000003
      3.90048      1.94745      9.25070        -0.000000     -0.000002      0.000004
      0.00000      5.85456      9.23850        -0.000000      0.000001     -0.000003
      3.90048      5.85351      9.25070        -0.000000      0.000002      0.000004
      1.94640      0.00000      9.23850        -0.000001     -0.000000     -0.000003
      5.85456      0.00000      9.23850         0.000001     -0.000000     -0.000003
      1.94745      3.90048      9.25070        -0.000002     -0.000000      0.000004
      5.85351      3.90048      9.25070         0.000002     -0.000000      0.000004
      1.94640      0.00000      3.07233        -0.000001     -0.000000      0.000003
      5.85456      7.80096      3.07233         0.000001     -0.000000      0.000003
      1.94745      3.90048      3.06014        -0.000002     -0.000000     -0.000004
      5.85351      3.90048      3.06014         0.000002     -0.000000     -0.000004
      0.00000      1.94640      3.07233        -0.000000     -0.000001      0.000003
      3.90048      1.94745      3.06014        -0.000000     -0.000002     -0.000004
      0.00000      5.85456      3.07233        -0.000000      0.000001      0.000003
      3.90048      5.85351      3.06014        -0.000000      0.000002     -0.000004
      0.00000      7.80096      0.00000        -0.000000     -0.000000      0.000000
 -----------------------------------------------------------------------------------
    total drift:                                0.000000      0.000000      0.000000


--------------------------------------------------------------------------------------------------------



  FREE ENERGIE OF THE ION-ELECTRON SYSTEM (eV)
  ---------------------------------------------------
  free  energy   TOTEN  =      -208.80645233 eV

  energy  without entropy=     -208.80645233  energy(sigma->0) =     -208.80645233
 
 d Force = 0.1424581E-10[ 0.475E-11, 0.237E-10]  d Energy =-0.4365575E-10 0.579E-10
 d Force =-0.5322519E-03[-0.532E-03,-0.532E-03]  d Ewald  =-0.5322522E-03 0.313E-09


--------------------------------------------------------------------------------------------------------


    POTLOK:  cpu time      0.8568: real time      0.8573


--------------------------------------------------------------------------------------------------------


 Conjugate gradient step on ions:
 trial-energy change:    0.000000  1 .order   -0.000000   -0.000000   -0.000000
  (g-gl).g = 0.201E-09      g.g   = 0.137E-09  gl.gl    = 0.777E-10
 g(Force)  = 0.137E-09   g(Stress)= 0.000E+00 ortho     = 0.553E-11
 gamma     =   2.58907
 trial     =   0.15658
 opt step  =   0.19571  (harmonic =   0.19571) maximal distance =0.00000052
 next E    =  -208.806452   (d E  =  -0.00000)


--------------------------------------------------------------------------------------------------------


  
 reached required accuracy - stopping structural energy minimisation
     LOOP+:  cpu time    147.6898: real time    147.7366
    4ORBIT:  cpu time      0.0000: real time      0.0000

 total amount of memory used by VASP MPI-rank0    94155. kBytes
=======================================================================

   base      :      30000. kBytes
   nonl-proj :      16976. kBytes
   fftplans  :      13004. kBytes
   grid      :       8308. kBytes
   one-center:         77. kBytes
   wavefun   :      25790. kBytes
 
  
  
 General timing and accounting informations for this job:
 ========================================================
  
                  Total CPU time used (sec):     2423.760
                            User time (sec):     2413.130
                          System time (sec):       10.631
                         Elapsed time (sec):     2424.444
  
                   Maximum memory used (kb):      193544.
                   Average memory used (kb):          N/A
  
                          Minor page faults:        35935
                          Major page faults:            9
                 Voluntary context switches:          248
