<?xml version="1.0" encoding="ISO-8859-1"?>
<modeling>
 <generator>
  <i name="program" type="string">vasp </i>
  <i name="version" type="string">6.4.3  </i>
  <i name="subversion" type="string">19Mar24 (build Apr 09 2025 20:43:19) complex                          parallel </i>
  <i name="platform" type="string">LinuxIFC </i>
  <i name="date" type="string">2025 04 13 </i>
  <i name="time" type="string">16:57:58 </i>
 </generator>
 <incar>
  <i type="string" name="PREC">Accurate</i>
  <i type="int" name="IALGO">    38</i>
  <i type="logical" name="ADDGRID"> T  </i>
  <i type="int" name="NELMIN">     5</i>
  <i type="int" name="IBRION">     2</i>
  <i name="EDIFF">      0.00000001</i>
  <i name="EDIFFG">     -0.00001000</i>
  <i type="int" name="NSW">   100</i>
  <i type="int" name="ISIF">     2</i>
  <i name="ENCUT">    520.00000000</i>
  <i type="logical" name="LREAL"> F  </i>
  <i type="int" name="ISMEAR">     0</i>
  <i name="SIGMA">      0.05000000</i>
  <i type="logical" name="LWAVE"> F  </i>
  <i type="logical" name="LCHARG"> F  </i>
 </incar>
 <primitive_cell>
  <structure name="primitive_cell" >
   <crystal>
    <varray name="basis" >
     <v>       7.80095825       0.00000000       0.00000000 </v>
     <v>       0.00000000       7.80095825       0.00000000 </v>
     <v>       0.00000000       0.00000000      12.31083830 </v>
    </varray>
    <i name="volume">    749.17544500 </i>
    <varray name="rec_basis" >
     <v>       0.12818938       0.00000000       0.00000000 </v>
     <v>       0.00000000       0.12818938       0.00000000 </v>
     <v>       0.00000000       0.00000000       0.08122924 </v>
    </varray>
   </crystal>
   <varray name="positions" >
    <v>       0.24887750       0.24887750       0.85499731 </v>
    <v>       0.75112250       0.24887750       0.85499731 </v>
    <v>       0.24887750       0.75112250       0.85499731 </v>
    <v>       0.75112250       0.75112250       0.85499731 </v>
    <v>       0.00000000       0.00000000       0.64598766 </v>
    <v>       0.50000000       0.00000000       0.64679774 </v>
    <v>       0.00000000       0.50000000       0.64679774 </v>
    <v>       0.50000000       0.50000000       0.64770494 </v>
    <v>       0.00000000       0.00000000       0.35401234 </v>
    <v>       0.50000000       0.00000000       0.35320226 </v>
    <v>       0.00000000       0.50000000       0.35320226 </v>
    <v>       0.50000000       0.50000000       0.35229506 </v>
    <v>       0.24887750       0.24887750       0.14500269 </v>
    <v>       0.75112250       0.24887750       0.14500269 </v>
    <v>       0.24887750       0.75112250       0.14500269 </v>
    <v>       0.75112250       0.75112250       0.14500269 </v>
    <v>       0.50000000       0.00000000       0.00000000 </v>
    <v>       0.00000000       0.50000000       0.00000000 </v>
    <v>       0.50000000       0.50000000       0.00000000 </v>
    <v>       0.25021125       0.25021125       0.50000000 </v>
    <v>       0.74978875       0.25021125       0.50000000 </v>
    <v>       0.25021125       0.74978875       0.50000000 </v>
    <v>       0.74978875       0.74978875       0.50000000 </v>
    <v>       0.00000000       0.24950732       0.75043654 </v>
    <v>       0.50000000       0.24964221       0.75142718 </v>
    <v>       0.00000000       0.75049268       0.75043654 </v>
    <v>       0.50000000       0.75035779       0.75142718 </v>
    <v>       0.24950732       0.00000000       0.75043654 </v>
    <v>       0.75049268       0.00000000       0.75043654 </v>
    <v>       0.24964221       0.50000000       0.75142718 </v>
    <v>       0.75035779       0.50000000       0.75142718 </v>
    <v>       0.24950732       0.00000000       0.24956346 </v>
    <v>       0.75049268       0.00000000       0.24956346 </v>
    <v>       0.24964221       0.50000000       0.24857282 </v>
    <v>       0.75035779       0.50000000       0.24857282 </v>
    <v>       0.00000000       0.24950732       0.24956346 </v>
    <v>       0.50000000       0.24964221       0.24857282 </v>
    <v>       0.00000000       0.75049268       0.24956346 </v>
    <v>       0.50000000       0.75035779       0.24857282 </v>
    <v>       0.00000000       0.00000000       0.00000000 </v>
   </varray>
  </structure>
  <varray name="primitive_index" >
   <v type="int" >        1 </v>
   <v type="int" >        2 </v>
   <v type="int" >        3 </v>
   <v type="int" >        4 </v>
   <v type="int" >        5 </v>
   <v type="int" >        6 </v>
   <v type="int" >        7 </v>
   <v type="int" >        8 </v>
   <v type="int" >        9 </v>
   <v type="int" >       10 </v>
   <v type="int" >       11 </v>
   <v type="int" >       12 </v>
   <v type="int" >       13 </v>
   <v type="int" >       14 </v>
   <v type="int" >       15 </v>
   <v type="int" >       16 </v>
   <v type="int" >       17 </v>
   <v type="int" >       18 </v>
   <v type="int" >       19 </v>
   <v type="int" >       20 </v>
   <v type="int" >       21 </v>
   <v type="int" >       22 </v>
   <v type="int" >       23 </v>
   <v type="int" >       24 </v>
   <v type="int" >       25 </v>
   <v type="int" >       26 </v>
   <v type="int" >       27 </v>
   <v type="int" >       28 </v>
   <v type="int" >       29 </v>
   <v type="int" >       30 </v>
   <v type="int" >       31 </v>
   <v type="int" >       32 </v>
   <v type="int" >       33 </v>
   <v type="int" >       34 </v>
   <v type="int" >       35 </v>
   <v type="int" >       36 </v>
   <v type="int" >       37 </v>
   <v type="int" >       38 </v>
   <v type="int" >       39 </v>
   <v type="int" >       40 </v>
  </varray>
 </primitive_cell>
 <kpoints>
  <generation param="Gamma">
   <v type="int" name="divisions">       4        4        3 </v>
   <v name="usershift">      0.00000000       0.00000000       0.00000000 </v>
   <v name="genvec1">      0.25000000       0.00000000       0.00000000 </v>
   <v name="genvec2">      0.00000000       0.25000000       0.00000000 </v>
   <v name="genvec3">      0.00000000       0.00000000       0.33333333 </v>
   <v name="shift">      0.00000000       0.00000000       0.00000000 </v>
  </generation>
  <varray name="kpointlist" >
   <v>       0.00000000       0.00000000       0.00000000 </v>
   <v>       0.25000000       0.00000000       0.00000000 </v>
   <v>       0.50000000       0.00000000       0.00000000 </v>
   <v>       0.25000000       0.25000000       0.00000000 </v>
   <v>       0.50000000       0.25000000       0.00000000 </v>
   <v>       0.50000000       0.50000000       0.00000000 </v>
   <v>       0.00000000       0.00000000       0.33333333 </v>
   <v>       0.25000000       0.00000000       0.33333333 </v>
   <v>       0.50000000       0.00000000       0.33333333 </v>
   <v>       0.25000000       0.25000000       0.33333333 </v>
   <v>       0.50000000       0.25000000       0.33333333 </v>
   <v>       0.50000000       0.50000000       0.33333333 </v>
  </varray>
  <varray name="weights" >
   <v>       0.02083333 </v>
   <v>       0.08333333 </v>
   <v>       0.04166667 </v>
   <v>       0.08333333 </v>
   <v>       0.08333333 </v>
   <v>       0.02083333 </v>
   <v>       0.04166667 </v>
   <v>       0.16666667 </v>
   <v>       0.08333333 </v>
   <v>       0.16666667 </v>
   <v>       0.16666667 </v>
   <v>       0.04166667 </v>
  </varray>
 </kpoints>
 <parameters>
  <separator name="general" >
   <i type="string" name="SYSTEM">unknown system</i>
   <i type="logical" name="LCOMPAT"> F  </i>
  </separator>
  <separator name="electronic" >
   <i type="string" name="PREC">accura</i>
   <i name="ENMAX">    520.00000000</i>
   <i name="ENAUG">    605.39200000</i>
   <i name="EDIFF">      0.00000001</i>
   <i type="int" name="IALGO">    38</i>
   <i type="int" name="IWAVPR">    11</i>
   <i type="int" name="NBANDS">   232</i>
   <i type="int" name="NBANDSLOW">    -1</i>
   <i type="int" name="NBANDSHIGH">    -1</i>
   <i name="NELECT">    384.00000000</i>
   <i type="int" name="TURBO">     0</i>
   <i type="int" name="IRESTART">     0</i>
   <i type="int" name="NREBOOT">     0</i>
   <i type="int" name="NMIN">     0</i>
   <i name="EREF">      0.00000000</i>
   <separator name="electronic smearing" >
    <i type="int" name="ISMEAR">     0</i>
    <i name="SIGMA">      0.05000000</i>
    <i name="KSPACING">      0.50000000</i>
    <i type="logical" name="KGAMMA"> T  </i>
    <i type="logical" name="KBLOWUP"> T  </i>
   </separator>
   <separator name="electronic projectors" >
    <i type="logical" name="LREAL"> F  </i>
    <v name="ROPT">      0.00000000      0.00000000      0.00000000      0.00000000</v>
    <i type="int" name="LMAXPAW">  -100</i>
    <i type="int" name="LMAXMIX">     2</i>
    <i type="logical" name="NLSPLINE"> F  </i>
   </separator>
   <separator name="electronic startup" >
    <i type="int" name="ISTART">     0</i>
    <i type="int" name="ICHARG">     2</i>
    <i type="int" name="INIWAV">     1</i>
   </separator>
   <separator name="electronic spin" >
    <i type="int" name="ISPIN">     1</i>
    <i type="logical" name="LNONCOLLINEAR"> F  </i>
    <v name="MAGMOM">      1.00000000      1.00000000      1.00000000      1.00000000      1.00000000      1.00000000      1.00000000      1.00000000      1.00000000      1.00000000      1.00000000      1.00000000      1.00000000      1.00000000      1.00000000      1.00000000      1.00000000      1.00000000      1.00000000      1.00000000
      1.00000000      1.00000000      1.00000000      1.00000000      1.00000000      1.00000000      1.00000000      1.00000000      1.00000000      1.00000000      1.00000000      1.00000000      1.00000000      1.00000000      1.00000000      1.00000000      1.00000000      1.00000000      1.00000000      1.00000000
</v>
    <i name="NUPDOWN">     -1.00000000</i>
    <i type="logical" name="LSORBIT"> F  </i>
    <v name="SAXIS">      0.00000000      0.00000000      1.00000000</v>
    <i type="logical" name="LSPIRAL"> F  </i>
    <v name="QSPIRAL">      0.00000000      0.00000000      0.00000000</v>
    <i type="logical" name="LZEROZ"> F  </i>
   </separator>
   <separator name="electronic exchange-correlation" >
    <i type="logical" name="LASPH"> F  </i>
   </separator>
   <separator name="electronic convergence" >
    <i type="int" name="NELM">    60</i>
    <i type="int" name="NELMDL">    -5</i>
    <i type="int" name="NELMIN">     5</i>
    <i name="ENINI">    520.00000000</i>
    <separator name="electronic convergence detail" >
     <i type="logical" name="LDIAG"> T  </i>
     <i type="logical" name="LSUBROT"> F  </i>
     <i name="WEIMIN">      0.00100000</i>
     <i name="EBREAK">      0.00000000</i>
     <i name="DEPER">      0.30000000</i>
     <i type="int" name="NRMM">     4</i>
     <i name="TIME">      0.40000000</i>
    </separator>
   </separator>
   <separator name="electronic mixer" >
    <i name="AMIX">      0.40000000</i>
    <i name="BMIX">      1.00000000</i>
    <i name="AMIN">      0.10000000</i>
    <i name="AMIX_MAG">      1.60000000</i>
    <i name="BMIX_MAG">      1.00000000</i>
    <separator name="electronic mixer details" >
     <i type="int" name="IMIX">     4</i>
     <i type="logical" name="MIXFIRST"> F  </i>
     <i type="int" name="MAXMIX">   -45</i>
     <i name="WC">    100.00000000</i>
     <i type="int" name="INIMIX">     1</i>
     <i type="int" name="MIXPRE">     1</i>
     <i type="int" name="MREMOVE">     5</i>
    </separator>
   </separator>
   <separator name="electronic dipolcorrection" >
    <i type="logical" name="LDIPOL"> F  </i>
    <i type="logical" name="LMONO"> F  </i>
    <i type="int" name="IDIPOL">     0</i>
    <i name="EPSILON">      1.00000000</i>
    <v name="DIPOL">   -100.00000000   -100.00000000   -100.00000000</v>
    <i name="EFIELD">      0.00000000</i>
    <i type="logical" name="LVACPOTAV"> F  </i>
   </separator>
  </separator>
  <separator name="grids" >
   <i type="int" name="NGX">    60</i>
   <i type="int" name="NGY">    60</i>
   <i type="int" name="NGZ">    96</i>
   <i type="int" name="NGXF">   120</i>
   <i type="int" name="NGYF">   120</i>
   <i type="int" name="NGZF">   192</i>
   <i type="logical" name="ADDGRID"> T  </i>
  </separator>
  <separator name="ionic" >
   <i type="int" name="NSW">   100</i>
   <i type="int" name="IBRION">     2</i>
   <i type="int" name="MDALGO">     0</i>
   <i type="int" name="ISIF">     2</i>
   <i name="PSTRESS">      0.00000000</i>
   <i name="EDIFFG">     -0.00001000</i>
   <i type="int" name="NFREE">     1</i>
   <i name="POTIM">      0.50000000</i>
   <i name="SMASS">     -3.00000000</i>
   <i name="SCALEE">      1.00000000</i>
  </separator>
  <separator name="ionic md" >
   <i name="TEBEG">      0.00010000</i>
   <i name="TEEND">      0.00010000</i>
   <i type="int" name="NBLOCK">     1</i>
   <i type="int" name="KBLOCK">   100</i>
   <i type="int" name="NPACO">   256</i>
   <i name="APACO">     10.00000000</i>
  </separator>
  <separator name="symmetry" >
   <i type="int" name="ISYM">     2</i>
   <i name="SYMPREC">      0.00001000</i>
  </separator>
  <separator name="dos" >
   <i type="int" name="LORBIT">     0</i>
   <v name="RWIGS">     -1.00000000     -1.00000000     -1.00000000     -1.00000000</v>
   <i type="int" name="NEDOS">   301</i>
   <i name="EMIN">     10.00000000</i>
   <i name="EMAX">    -10.00000000</i>
   <i name="EFERMI">      0.00000000</i>
  </separator>
  <separator name="writing" >
   <i type="int" name="NWRITE">     2</i>
   <i type="logical" name="LWAVE"> F  </i>
   <i type="logical" name="LDOWNSAMPLE"> F  </i>
   <i type="logical" name="LCHARG"> F  </i>
   <i type="logical" name="LPARD"> F  </i>
   <i type="logical" name="LVTOT"> F  </i>
   <i type="logical" name="LVHAR"> F  </i>
   <i type="logical" name="LELF"> F  </i>
   <i type="logical" name="LOPTICS"> F  </i>
   <v name="STM">      0.00000000      0.00000000      0.00000000      0.00000000      0.00000000      0.00000000      0.00000000</v>
  </separator>
  <separator name="performance" >
   <i type="int" name="NPAR">     4</i>
   <i type="int" name="NSIM">     4</i>
   <i type="int" name="NBLK">    -1</i>
   <i type="logical" name="LPLANE"> T  </i>
   <i type="logical" name="LSCALAPACK"> T  </i>
   <i type="logical" name="LSCAAWARE"> F  </i>
   <i type="logical" name="LSCALU"> F  </i>
   <i type="logical" name="LASYNC"> F  </i>
   <i type="logical" name="LORBITALREAL"> F  </i>
  </separator>
  <separator name="miscellaneous" >
   <i type="int" name="IDIOT">     3</i>
   <i type="int" name="PHON_NSTRUCT">    -1</i>
   <i type="logical" name="LMUSIC"> F  </i>
   <v name="POMASS">    208.98000000     78.96000000     16.00000000     32.06600000</v>
   <v name="DARWINR">      0.00000000      0.00000000      0.00000000      0.00000000</v>
   <v name="DARWINV">      1.00000000      1.00000000      1.00000000      1.00000000</v>
   <i type="logical" name="LCORR"> T  </i>
  </separator>
  <i type="logical" name="GGA_COMPAT"> T  </i>
  <i type="logical" name="LBERRY"> F  </i>
  <i type="int" name="ICORELEVEL">     0</i>
  <i type="logical" name="LDAU"> F  </i>
  <i type="int" name="I_CONSTRAINED_M">     0</i>
  <separator name="electronic exchange-correlation" >
   <i type="string" name="GGA    ">PE</i>
   <i type="string" name="XC_C">1</i>
   <i type="int" name="VOSKOWN">     0</i>
   <i type="logical" name="LHFCALC"> F  </i>
   <i type="string" name="PRECFOCK"></i>
   <i type="logical" name="LSYMGRAD"> F  </i>
   <i type="logical" name="LHFONE"> F  </i>
   <i type="logical" name="LRHFCALC"> F  </i>
   <i type="logical" name="LTHOMAS"> F  </i>
   <i type="logical" name="LMODELHF"> F  </i>
   <i type="logical" name="LFOCKACE"> F  </i>
   <i name="ENCUT4O">     -1.00000000</i>
   <i type="int" name="EXXOEP">     0</i>
   <i type="int" name="FOURORBIT">     0</i>
   <i name="AEXX">      0.00000000</i>
   <i name="HFALPHA">      0.00000000</i>
   <i name="MCALPHA">      0.00000000</i>
   <i name="ALDAX">      1.00000000</i>
   <i name="AGGAX">      1.00000000</i>
   <i name="AMGGAX">      1.00000000</i>
   <i name="ALDAC">      1.00000000</i>
   <i name="AGGAC">      1.00000000</i>
   <i name="AMGGAC">      1.00000000</i>
   <i type="int" name="NKREDX">     1</i>
   <i type="int" name="NKREDY">     1</i>
   <i type="int" name="NKREDZ">     1</i>
   <i type="logical" name="SHIFTRED"> F  </i>
   <i type="logical" name="ODDONLY"> F  </i>
   <i type="logical" name="EVENONLY"> F  </i>
   <i type="int" name="LMAXFOCK">     0</i>
   <i type="int" name="NMAXFOCKAE">     0</i>
   <i type="logical" name="LFOCKAEDFT"> F  </i>
   <i name="HFSCREEN">      0.00000000</i>
   <i name="HFSCREENC">      0.00000000</i>
   <i type="int" name="NBANDSGWLOW">     0</i>
  </separator>
  <separator name="vdW DFT" >
   <i type="logical" name="LUSE_VDW"> F  </i>
   <i type="int" name="IVDW_NL">    -1</i>
   <i type="logical" name="LSPIN_VDW"> F  </i>
   <i name="ZAB_VDW">     -0.84910000</i>
   <i name="GAMMA_VDW">      1.39626340</i>
   <i name="ALPHA_VDW">      0.00000000</i>
   <i name="PARAM1">      0.12340000</i>
   <i name="PARAM2">      1.00000000</i>
   <i name="BPARAM">      6.30000000</i>
   <i name="CPARAM">      0.00930000</i>
  </separator>
  <separator name="model GW" >
   <i type="int" name="MODEL_GW">     0</i>
   <i name="MODEL_EPS0">     11.23763168</i>
   <i name="MODEL_ALPHA">      1.00000000</i>
  </separator>
  <separator name="linear response parameters" >
   <i type="logical" name="LEPSILON"> F  </i>
   <i type="logical" name="LRPA"> F  </i>
   <i type="logical" name="LNABLA"> F  </i>
   <i type="logical" name="LVEL"> F  </i>
   <i name="CSHIFT">      0.10000000</i>
   <i name="OMEGAMAX">     -1.00000000</i>
   <i name="DEG_THRESHOLD">      0.00200000</i>
   <i name="RTIME">     -0.10000000</i>
   <i name="WPLASMAI">      0.00000000</i>
   <v name="DFIELD">      0.00000000      0.00000000      0.00000000</v>
   <v name="WPLASMA">      0.00000000      0.00000000      0.00000000      0.00000000      0.00000000      0.00000000      0.00000000      0.00000000      0.00000000</v>
  </separator>
  <separator name="orbital magnetization" >
   <i type="logical" name="NUCIND"> F  </i>
   <v name="MAGPOS">      0.00000000      0.00000000      0.00000000</v>
   <i type="logical" name="LNICSALL"> T  </i>
   <i type="logical" name="ORBITALMAG"> F  </i>
   <i type="logical" name="LMAGBLOCH"> F  </i>
   <i type="logical" name="LCHIMAG"> F  </i>
   <i type="logical" name="LGAUGE"> T  </i>
   <i type="int" name="MAGATOM">     0</i>
   <v name="MAGDIPOL">      0.00000000      0.00000000      0.00000000</v>
   <v name="AVECCONST">      0.00000000      0.00000000      0.00000000</v>
  </separator>
  <separator name="response functions" >
   <i type="logical" name="LALL_IN_ONE"> F  </i>
   <i type="int" name="IALL_IN_ONE">    -1</i>
   <i type="int" name="NBANDS_WAVE">    -1</i>
   <i type="logical" name="LFINITE_TEMPERATURE"> F  </i>
   <i type="logical" name="LADDER"> F  </i>
   <i type="logical" name="LRPAFORCE"> F  </i>
   <i type="logical" name="LFXC"> F  </i>
   <i type="logical" name="LHARTREE"> T  </i>
   <i type="int" name="IBSE">     0</i>
   <v type="int" name="KPOINT">    -1     0     0     0</v>
   <i type="logical" name="LTCTC"> F  </i>
   <i type="logical" name="LTCTE"> F  </i>
   <i type="logical" name="LTETE"> F  </i>
   <i type="logical" name="LTRIPLET"> F  </i>
   <i type="logical" name="LFXCEPS"> F  </i>
   <i type="logical" name="LFXHEG"> F  </i>
   <i type="int" name="NATURALO">     2</i>
   <i type="logical" name="LHOLEGF"> F  </i>
   <i type="logical" name="L2ORDER"> F  </i>
   <i type="logical" name="LDMP1"> F  </i>
   <i type="logical" name="LMP2LT"> F  </i>
   <i type="logical" name="LSMP2LT"> F  </i>
   <i type="logical" name="LGWLF"> F  </i>
   <i name="ENCUTGW">     -1.60000002</i>
   <i name="ENCUTGWSOFT">     -1.60000002</i>
   <i name="ENCUTLF">     -1.00000000</i>
   <i type="logical" name="ESF_SPLINES"> F  </i>
   <i name="ESF_CONV">      0.01000000</i>
   <i type="int" name="ESF_NINTER">    15</i>
   <i type="int" name="LMAXMP2">    -1</i>
   <i name="SCISSOR">      0.00000000</i>
   <i type="int" name="NOMEGA">     0</i>
   <i type="int" name="NOMEGAR">     0</i>
   <i type="int" name="NBANDSGW">    -1</i>
   <i type="int" name="NBANDSO">    -1</i>
   <i type="int" name="NBANDSV">    -1</i>
   <i type="int" name="NELMGW">     1</i>
   <i type="int" name="NELMHF">     1</i>
   <i type="int" name="DIM">     3</i>
   <i type="int" name="IESPILON">     4</i>
   <i type="int" name="ANTIRES">     0</i>
   <i name="OMEGAMAX">    -30.00000000</i>
   <i name="OMEGAMIN">    -30.00000000</i>
   <i name="OMEGATL">   -200.00000000</i>
   <i type="int" name="OMEGAGRID">     0</i>
   <i name="CSHIFT">     -0.10000000</i>
   <i type="logical" name="LSELFENERGY"> F  </i>
   <i type="logical" name="LSPECTRAL"> F  </i>
   <i type="logical" name="LSPECTRALGW"> F  </i>
   <i type="logical" name="LSINGLES"> F  </i>
   <i type="logical" name="LFERMIGW"> F  </i>
   <i type="logical" name="ODDONLYGW"> F  </i>
   <i type="logical" name="EVENONLYGW"> F  </i>
   <i type="int" name="NKREDLFX">     1</i>
   <i type="int" name="NKREDLFY">     1</i>
   <i type="int" name="NKREDLFZ">     1</i>
   <i type="int" name="MAXMEM">  2800</i>
   <i type="int" name="TELESCOPE">     0</i>
   <i type="int" name="NTAUPAR">    -1</i>
   <i type="int" name="NOMEGAPAR">    -1</i>
   <i name="DAMP_NEWTON">      0.80000001</i>
   <i name="LAMBDA">      1.00000000</i>
  </separator>
  <separator name="External order field" >
   <i name="OFIELD_KAPPA">      0.00000000</i>
   <v name="OFIELD_K">      0.00000000      0.00000000      0.00000000</v>
   <i name="OFIELD_Q6_NEAR">      0.00000000</i>
   <i name="OFIELD_Q6_FAR">      0.00000000</i>
   <i name="OFIELD_A">      0.00000000</i>
  </separator>
  <separator name="optional k-points parameters" >
   <i type="int" name="KPOINTS_OPT_MODE">     1</i>
   <i type="logical" name="LKPOINTS_OPT"> F  </i>
  </separator>
 </parameters>
 <atominfo>
  <atoms>      40 </atoms>
  <types>       4 </types>
  <array name="atoms" >
   <dimension dim="1">ion</dimension>
   <field type="string">element</field>
   <field type="int">atomtype</field>
   <set>
    <rc><c>Bi</c><c>   1</c></rc>
    <rc><c>Bi</c><c>   1</c></rc>
    <rc><c>Bi</c><c>   1</c></rc>
    <rc><c>Bi</c><c>   1</c></rc>
    <rc><c>Bi</c><c>   1</c></rc>
    <rc><c>Bi</c><c>   1</c></rc>
    <rc><c>Bi</c><c>   1</c></rc>
    <rc><c>Bi</c><c>   1</c></rc>
    <rc><c>Bi</c><c>   1</c></rc>
    <rc><c>Bi</c><c>   1</c></rc>
    <rc><c>Bi</c><c>   1</c></rc>
    <rc><c>Bi</c><c>   1</c></rc>
    <rc><c>Bi</c><c>   1</c></rc>
    <rc><c>Bi</c><c>   1</c></rc>
    <rc><c>Bi</c><c>   1</c></rc>
    <rc><c>Bi</c><c>   1</c></rc>
    <rc><c>Se</c><c>   2</c></rc>
    <rc><c>Se</c><c>   2</c></rc>
    <rc><c>Se</c><c>   2</c></rc>
    <rc><c>Se</c><c>   2</c></rc>
    <rc><c>Se</c><c>   2</c></rc>
    <rc><c>Se</c><c>   2</c></rc>
    <rc><c>Se</c><c>   2</c></rc>
    <rc><c>O </c><c>   3</c></rc>
    <rc><c>O </c><c>   3</c></rc>
    <rc><c>O </c><c>   3</c></rc>
    <rc><c>O </c><c>   3</c></rc>
    <rc><c>O </c><c>   3</c></rc>
    <rc><c>O </c><c>   3</c></rc>
    <rc><c>O </c><c>   3</c></rc>
    <rc><c>O </c><c>   3</c></rc>
    <rc><c>O </c><c>   3</c></rc>
    <rc><c>O </c><c>   3</c></rc>
    <rc><c>O </c><c>   3</c></rc>
    <rc><c>O </c><c>   3</c></rc>
    <rc><c>O </c><c>   3</c></rc>
    <rc><c>O </c><c>   3</c></rc>
    <rc><c>O </c><c>   3</c></rc>
    <rc><c>O </c><c>   3</c></rc>
    <rc><c>S </c><c>   4</c></rc>
   </set>
  </array>
  <array name="atomtypes" >
   <dimension dim="1">type</dimension>
   <field type="int">atomspertype</field>
   <field type="string">element</field>
   <field>mass</field>
   <field>valence</field>
   <field type="string">pseudopotential</field>
   <set>
    <rc><c>  16</c><c>Bi</c><c>    208.98000000</c><c>     15.00000000</c><c>  PAW_PBE Bi_d 06Sep2000                </c></rc>
    <rc><c>   7</c><c>Se</c><c>     78.96000000</c><c>      6.00000000</c><c>  PAW_PBE Se 06Sep2000                  </c></rc>
    <rc><c>  16</c><c>O </c><c>     16.00000000</c><c>      6.00000000</c><c>  PAW_PBE O 08Apr2002                   </c></rc>
    <rc><c>   1</c><c>S </c><c>     32.06600000</c><c>      6.00000000</c><c>  PAW_PBE S 06Sep2000                   </c></rc>
   </set>
  </array>
 </atominfo>
 <structure name="initialpos" >
  <crystal>
   <varray name="basis" >
    <v>       7.80095825       0.00000000       0.00000000 </v>
    <v>       0.00000000       7.80095825       0.00000000 </v>
    <v>       0.00000000       0.00000000      12.31083830 </v>
   </varray>
   <i name="volume">    749.17544500 </i>
   <varray name="rec_basis" >
    <v>       0.12818938       0.00000000       0.00000000 </v>
    <v>       0.00000000       0.12818938       0.00000000 </v>
    <v>       0.00000000       0.00000000       0.08122924 </v>
   </varray>
  </crystal>
  <varray name="positions" >
   <v>       0.24887750       0.24887750       0.85499731 </v>
   <v>       0.75112250       0.24887750       0.85499731 </v>
   <v>       0.24887750       0.75112250       0.85499731 </v>
   <v>       0.75112250       0.75112250       0.85499731 </v>
   <v>       0.00000000       0.00000000       0.64598766 </v>
   <v>       0.50000000       0.00000000       0.64679774 </v>
   <v>       0.00000000       0.50000000       0.64679774 </v>
   <v>       0.50000000       0.50000000       0.64770494 </v>
   <v>       0.00000000       0.00000000       0.35401234 </v>
   <v>       0.50000000       0.00000000       0.35320226 </v>
   <v>       0.00000000       0.50000000       0.35320226 </v>
   <v>       0.50000000       0.50000000       0.35229506 </v>
   <v>       0.24887750       0.24887750       0.14500269 </v>
   <v>       0.75112250       0.24887750       0.14500269 </v>
   <v>       0.24887750       0.75112250       0.14500269 </v>
   <v>       0.75112250       0.75112250       0.14500269 </v>
   <v>       0.50000000       0.00000000       0.00000000 </v>
   <v>       0.00000000       0.50000000       0.00000000 </v>
   <v>       0.50000000       0.50000000       0.00000000 </v>
   <v>       0.25021125       0.25021125       0.50000000 </v>
   <v>       0.74978875       0.25021125       0.50000000 </v>
   <v>       0.25021125       0.74978875       0.50000000 </v>
   <v>       0.74978875       0.74978875       0.50000000 </v>
   <v>       0.00000000       0.24950732       0.75043654 </v>
   <v>       0.50000000       0.24964221       0.75142718 </v>
   <v>       0.00000000       0.75049268       0.75043654 </v>
   <v>       0.50000000       0.75035779       0.75142718 </v>
   <v>       0.24950732       0.00000000       0.75043654 </v>
   <v>       0.75049268       0.00000000       0.75043654 </v>
   <v>       0.24964221       0.50000000       0.75142718 </v>
   <v>       0.75035779       0.50000000       0.75142718 </v>
   <v>       0.24950732       0.00000000       0.24956346 </v>
   <v>       0.75049268       0.00000000       0.24956346 </v>
   <v>       0.24964221       0.50000000       0.24857282 </v>
   <v>       0.75035779       0.50000000       0.24857282 </v>
   <v>       0.00000000       0.24950732       0.24956346 </v>
   <v>       0.50000000       0.24964221       0.24857282 </v>
   <v>       0.00000000       0.75049268       0.24956346 </v>
   <v>       0.50000000       0.75035779       0.24857282 </v>
   <v>       0.00000000       0.00000000       0.00000000 </v>
  </varray>
 </structure>
 <calculation>
  <scstep>
   <time name="dav">   32.02   32.04</time>
   <time name="total">   32.88   32.90</time>
   <energy>
    <i name="alphaZ">   1348.35728886 </i>
    <i name="ewald"> -29655.93237831 </i>
    <i name="hartreedc"> -11265.52672832 </i>
    <i name="XCdc">   1235.75755274 </i>
    <i name="pawpsdc">  34040.00696010 </i>
    <i name="pawaedc"> -33495.80632930 </i>
    <i name="eentropy">     -0.00985755 </i>
    <i name="bandstr">   3117.19307460 </i>
    <i name="atom">  40341.65184589 </i>
    <i name="e_fr_energy">   5665.69142871 </i>
    <i name="e_wo_entrp">   5665.70128627 </i>
    <i name="e_0_energy">   5665.69635749 </i>
   </energy>
  </scstep>
  <scstep>
   <time name="dav">   32.05   32.06</time>
   <time name="total">   32.05   32.07</time>
   <energy>
    <i name="e_fr_energy">    974.55002543 </i>
    <i name="e_wo_entrp">    974.55794932 </i>
    <i name="e_0_energy">    974.55398737 </i>
   </energy>
  </scstep>
  <scstep>
   <time name="dav">   34.60   34.63</time>
   <time name="total">   34.60   34.64</time>
   <energy>
    <i name="e_fr_energy">   -109.09556549 </i>
    <i name="e_wo_entrp">   -109.09556549 </i>
    <i name="e_0_energy">   -109.09556549 </i>
   </energy>
  </scstep>
  <scstep>
   <time name="dav">   36.58   36.60</time>
   <time name="total">   36.59   36.60</time>
   <energy>
    <i name="e_fr_energy">   -237.15975570 </i>
    <i name="e_wo_entrp">   -237.15975570 </i>
    <i name="e_0_energy">   -237.15975570 </i>
   </energy>
  </scstep>
  <scstep>
   <time name="dav">   36.42   36.44</time>
   <time name="total">   37.71   37.74</time>
   <energy>
    <i name="e_fr_energy">   -243.07223097 </i>
    <i name="e_wo_entrp">   -243.07223097 </i>
    <i name="e_0_energy">   -243.07223097 </i>
   </energy>
  </scstep>
  <scstep>
   <time name="dav">   40.81   40.84</time>
   <time name="total">   42.97   43.00</time>
   <energy>
    <i name="e_fr_energy">   -208.83324719 </i>
    <i name="e_wo_entrp">   -208.83324719 </i>
    <i name="e_0_energy">   -208.83324719 </i>
   </energy>
  </scstep>
  <scstep>
   <time name="dav">   34.40   34.42</time>
   <time name="total">   36.56   36.58</time>
   <energy>
    <i name="e_fr_energy">   -208.75591848 </i>
    <i name="e_wo_entrp">   -208.75591848 </i>
    <i name="e_0_energy">   -208.75591848 </i>
   </energy>
  </scstep>
  <scstep>
   <time name="dav">   42.18   42.18</time>
   <time name="total">   44.34   44.34</time>
   <energy>
    <i name="e_fr_energy">   -208.89640819 </i>
    <i name="e_wo_entrp">   -208.89640819 </i>
    <i name="e_0_energy">   -208.89640819 </i>
   </energy>
  </scstep>
  <scstep>
   <time name="dav">   39.61   39.62</time>
   <time name="total">   41.77   41.77</time>
   <energy>
    <i name="e_fr_energy">   -208.81448611 </i>
    <i name="e_wo_entrp">   -208.81448611 </i>
    <i name="e_0_energy">   -208.81448611 </i>
   </energy>
  </scstep>
  <scstep>
   <time name="dav">   37.75   37.74</time>
   <time name="total">   39.90   39.90</time>
   <energy>
    <i name="e_fr_energy">   -208.80343017 </i>
    <i name="e_wo_entrp">   -208.80343017 </i>
    <i name="e_0_energy">   -208.80343017 </i>
   </energy>
  </scstep>
  <scstep>
   <time name="dav">   38.59   38.59</time>
   <time name="total">   40.75   40.75</time>
   <energy>
    <i name="e_fr_energy">   -208.80569249 </i>
    <i name="e_wo_entrp">   -208.80569249 </i>
    <i name="e_0_energy">   -208.80569249 </i>
   </energy>
  </scstep>
  <scstep>
   <time name="dav">   40.89   40.91</time>
   <time name="total">   43.04   43.07</time>
   <energy>
    <i name="e_fr_energy">   -208.80657965 </i>
    <i name="e_wo_entrp">   -208.80657965 </i>
    <i name="e_0_energy">   -208.80657965 </i>
   </energy>
  </scstep>
  <scstep>
   <time name="dav">   35.78   35.79</time>
   <time name="total">   37.94   37.94</time>
   <energy>
    <i name="e_fr_energy">   -208.80652163 </i>
    <i name="e_wo_entrp">   -208.80652163 </i>
    <i name="e_0_energy">   -208.80652163 </i>
   </energy>
  </scstep>
  <scstep>
   <time name="dav">   36.88   36.88</time>
   <time name="total">   39.04   39.04</time>
   <energy>
    <i name="e_fr_energy">   -208.80647781 </i>
    <i name="e_wo_entrp">   -208.80647781 </i>
    <i name="e_0_energy">   -208.80647781 </i>
   </energy>
  </scstep>
  <scstep>
   <time name="dav">   43.56   43.57</time>
   <time name="total">   45.72   45.73</time>
   <energy>
    <i name="e_fr_energy">   -208.80646256 </i>
    <i name="e_wo_entrp">   -208.80646256 </i>
    <i name="e_0_energy">   -208.80646256 </i>
   </energy>
  </scstep>
  <scstep>
   <time name="dav">   36.98   36.99</time>
   <time name="total">   39.14   39.14</time>
   <energy>
    <i name="e_fr_energy">   -208.80646318 </i>
    <i name="e_wo_entrp">   -208.80646318 </i>
    <i name="e_0_energy">   -208.80646318 </i>
   </energy>
  </scstep>
  <scstep>
   <time name="dav">   40.77   40.78</time>
   <time name="total">   42.93   42.94</time>
   <energy>
    <i name="e_fr_energy">   -208.80645174 </i>
    <i name="e_wo_entrp">   -208.80645174 </i>
    <i name="e_0_energy">   -208.80645174 </i>
   </energy>
  </scstep>
  <scstep>
   <time name="dav">   37.09   37.11</time>
   <time name="total">   39.24   39.27</time>
   <energy>
    <i name="e_fr_energy">   -208.80645163 </i>
    <i name="e_wo_entrp">   -208.80645163 </i>
    <i name="e_0_energy">   -208.80645163 </i>
   </energy>
  </scstep>
  <scstep>
   <time name="dav">   34.31   34.32</time>
   <time name="total">   36.47   36.47</time>
   <energy>
    <i name="e_fr_energy">   -208.80645194 </i>
    <i name="e_wo_entrp">   -208.80645194 </i>
    <i name="e_0_energy">   -208.80645194 </i>
   </energy>
  </scstep>
  <scstep>
   <time name="dav">   31.33   31.33</time>
   <time name="total">   33.49   33.49</time>
   <energy>
    <i name="e_fr_energy">   -208.80645216 </i>
    <i name="e_wo_entrp">   -208.80645216 </i>
    <i name="e_0_energy">   -208.80645216 </i>
   </energy>
  </scstep>
  <scstep>
   <time name="dav">   29.40   29.41</time>
   <time name="total">   31.55   31.57</time>
   <energy>
    <i name="e_fr_energy">   -208.80645227 </i>
    <i name="e_wo_entrp">   -208.80645227 </i>
    <i name="e_0_energy">   -208.80645227 </i>
   </energy>
  </scstep>
  <scstep>
   <time name="dav">   23.21   23.21</time>
   <time name="total">   25.37   25.37</time>
   <energy>
    <i name="e_fr_energy">   -208.80645234 </i>
    <i name="e_wo_entrp">   -208.80645234 </i>
    <i name="e_0_energy">   -208.80645234 </i>
   </energy>
  </scstep>
  <scstep>
   <time name="dav">   23.19   23.20</time>
   <time name="total">   24.05   24.06</time>
   <energy>
    <i name="alphaZ">   1348.35728886 </i>
    <i name="ewald"> -29655.93237831 </i>
    <i name="hartreedc"> -11430.51583567 </i>
    <i name="XCdc">   1252.93738251 </i>
    <i name="pawpsdc">  36363.19342034 </i>
    <i name="pawaedc"> -35760.43266002 </i>
    <i name="eentropy">     -0.00000000 </i>
    <i name="bandstr">  -2668.06551594 </i>
    <i name="atom">  40341.65184589 </i>
    <i name="e_fr_energy">   -208.80645233 </i>
    <i name="e_wo_entrp">   -208.80645233 </i>
    <i name="e_0_energy">   -208.80645233 </i>
   </energy>
  </scstep>
  <structure>
   <crystal>
    <varray name="basis" >
     <v>       7.80095825       0.00000000       0.00000000 </v>
     <v>       0.00000000       7.80095825       0.00000000 </v>
     <v>       0.00000000       0.00000000      12.31083830 </v>
    </varray>
    <i name="volume">    749.17544500 </i>
    <varray name="rec_basis" >
     <v>       0.12818938       0.00000000       0.00000000 </v>
     <v>       0.00000000       0.12818938       0.00000000 </v>
     <v>       0.00000000       0.00000000       0.08122924 </v>
    </varray>
   </crystal>
   <varray name="positions" >
    <v>       0.24887750       0.24887750       0.85499731 </v>
    <v>       0.75112250       0.24887750       0.85499731 </v>
    <v>       0.24887750       0.75112250       0.85499731 </v>
    <v>       0.75112250       0.75112250       0.85499731 </v>
    <v>       0.00000000       0.00000000       0.64598766 </v>
    <v>       0.50000000       0.00000000       0.64679774 </v>
    <v>       0.00000000       0.50000000       0.64679774 </v>
    <v>       0.50000000       0.50000000       0.64770494 </v>
    <v>       0.00000000       0.00000000       0.35401234 </v>
    <v>       0.50000000       0.00000000       0.35320226 </v>
    <v>       0.00000000       0.50000000       0.35320226 </v>
    <v>       0.50000000       0.50000000       0.35229506 </v>
    <v>       0.24887750       0.24887750       0.14500269 </v>
    <v>       0.75112250       0.24887750       0.14500269 </v>
    <v>       0.24887750       0.75112250       0.14500269 </v>
    <v>       0.75112250       0.75112250       0.14500269 </v>
    <v>       0.50000000       0.00000000       0.00000000 </v>
    <v>       0.00000000       0.50000000       0.00000000 </v>
    <v>       0.50000000       0.50000000       0.00000000 </v>
    <v>       0.25021125       0.25021125       0.50000000 </v>
    <v>       0.74978875       0.25021125       0.50000000 </v>
    <v>       0.25021125       0.74978875       0.50000000 </v>
    <v>       0.74978875       0.74978875       0.50000000 </v>
    <v>       0.00000000       0.24950732       0.75043654 </v>
    <v>       0.50000000       0.24964221       0.75142718 </v>
    <v>       0.00000000       0.75049268       0.75043654 </v>
    <v>       0.50000000       0.75035779       0.75142718 </v>
    <v>       0.24950732       0.00000000       0.75043654 </v>
    <v>       0.75049268       0.00000000       0.75043654 </v>
    <v>       0.24964221       0.50000000       0.75142718 </v>
    <v>       0.75035779       0.50000000       0.75142718 </v>
    <v>       0.24950732       0.00000000       0.24956346 </v>
    <v>       0.75049268       0.00000000       0.24956346 </v>
    <v>       0.24964221       0.50000000       0.24857282 </v>
    <v>       0.75035779       0.50000000       0.24857282 </v>
    <v>       0.00000000       0.24950732       0.24956346 </v>
    <v>       0.50000000       0.24964221       0.24857282 </v>
    <v>       0.00000000       0.75049268       0.24956346 </v>
    <v>       0.50000000       0.75035779       0.24857282 </v>
    <v>       0.00000000       0.00000000       0.00000000 </v>
   </varray>
  </structure>
  <varray name="forces" >
   <v>       0.00000642       0.00000642      -0.00000064 </v>
   <v>      -0.00000642       0.00000642      -0.00000064 </v>
   <v>       0.00000642      -0.00000642      -0.00000064 </v>
   <v>      -0.00000642      -0.00000642      -0.00000064 </v>
   <v>      -0.00000000       0.00000000       0.00002813 </v>
   <v>      -0.00000000      -0.00000000      -0.00000043 </v>
   <v>      -0.00000000       0.00000000      -0.00000043 </v>
   <v>      -0.00000000      -0.00000000      -0.00003109 </v>
   <v>      -0.00000000      -0.00000000      -0.00002813 </v>
   <v>      -0.00000000      -0.00000000       0.00000043 </v>
   <v>      -0.00000000       0.00000000       0.00000043 </v>
   <v>      -0.00000000      -0.00000000       0.00003109 </v>
   <v>       0.00000642       0.00000642       0.00000064 </v>
   <v>      -0.00000642       0.00000642       0.00000064 </v>
   <v>       0.00000642      -0.00000642       0.00000064 </v>
   <v>      -0.00000642      -0.00000642       0.00000064 </v>
   <v>      -0.00000000       0.00000000      -0.00000000 </v>
   <v>      -0.00000000       0.00000000      -0.00000000 </v>
   <v>      -0.00000000      -0.00000000      -0.00000000 </v>
   <v>       0.00001997       0.00001997      -0.00000000 </v>
   <v>      -0.00001997       0.00001997      -0.00000000 </v>
   <v>       0.00001997      -0.00001997      -0.00000000 </v>
   <v>      -0.00001997      -0.00001997      -0.00000000 </v>
   <v>      -0.00000000      -0.00000495       0.00000419 </v>
   <v>      -0.00000000      -0.00000467      -0.00000320 </v>
   <v>      -0.00000000       0.00000495       0.00000419 </v>
   <v>      -0.00000000       0.00000467      -0.00000320 </v>
   <v>      -0.00000495       0.00000000       0.00000419 </v>
   <v>       0.00000495      -0.00000000       0.00000419 </v>
   <v>      -0.00000467       0.00000000      -0.00000320 </v>
   <v>       0.00000467      -0.00000000      -0.00000320 </v>
   <v>      -0.00000495       0.00000000      -0.00000419 </v>
   <v>       0.00000495       0.00000000      -0.00000419 </v>
   <v>      -0.00000467       0.00000000       0.00000320 </v>
   <v>       0.00000467      -0.00000000       0.00000320 </v>
   <v>      -0.00000000      -0.00000495      -0.00000419 </v>
   <v>      -0.00000000      -0.00000467       0.00000320 </v>
   <v>      -0.00000000       0.00000495      -0.00000419 </v>
   <v>      -0.00000000       0.00000467       0.00000320 </v>
   <v>      -0.00000000       0.00000000      -0.00000000 </v>
  </varray>
  <varray name="stress" >
   <v>      13.37352959       0.00000000      -0.00000000 </v>
   <v>       0.00000000      13.37352959       0.00000000 </v>
   <v>       0.00000000       0.00000000      10.16294065 </v>
  </varray>
  <energy>
   <i name="e_fr_energy">   -208.80645233 </i>
   <i name="e_wo_entrp">   -208.80645233 </i>
   <i name="e_0_energy">   -208.80645233 </i>
  </energy>
  <time name="totalsc">  888.65  888.92</time>
 </calculation>
 <calculation>
  <scstep>
   <time name="dav">   29.48   29.48</time>
   <time name="total">   31.63   31.63</time>
   <energy>
    <i name="alphaZ">   1348.35728886 </i>
    <i name="ewald"> -29655.93246864 </i>
    <i name="hartreedc"> -11430.51571685 </i>
    <i name="XCdc">   1252.93737494 </i>
    <i name="pawpsdc">  36363.20391674 </i>
    <i name="pawaedc"> -35760.44304484 </i>
    <i name="eentropy">     -0.00000000 </i>
    <i name="bandstr">  -2668.06564843 </i>
    <i name="atom">  40341.65184589 </i>
    <i name="e_fr_energy">   -208.80645232 </i>
    <i name="e_wo_entrp">   -208.80645232 </i>
    <i name="e_0_energy">   -208.80645232 </i>
   </energy>
  </scstep>
  <scstep>
   <time name="dav">   23.13   23.13</time>
   <time name="total">   25.28   25.29</time>
   <energy>
    <i name="e_fr_energy">   -208.80645232 </i>
    <i name="e_wo_entrp">   -208.80645232 </i>
    <i name="e_0_energy">   -208.80645232 </i>
   </energy>
  </scstep>
  <scstep>
   <time name="dav">   23.04   23.06</time>
   <time name="total">   25.19   25.22</time>
   <energy>
    <i name="e_fr_energy">   -208.80645232 </i>
    <i name="e_wo_entrp">   -208.80645232 </i>
    <i name="e_0_energy">   -208.80645232 </i>
   </energy>
  </scstep>
  <scstep>
   <time name="dav">   23.03   23.03</time>
   <time name="total">   25.18   25.19</time>
   <energy>
    <i name="e_fr_energy">   -208.80645233 </i>
    <i name="e_wo_entrp">   -208.80645233 </i>
    <i name="e_0_energy">   -208.80645233 </i>
   </energy>
  </scstep>
  <scstep>
   <time name="dav">   22.93   22.93</time>
   <time name="total">   23.79   23.79</time>
   <energy>
    <i name="alphaZ">   1348.35728886 </i>
    <i name="ewald"> -29655.93246864 </i>
    <i name="hartreedc"> -11430.51597177 </i>
    <i name="XCdc">   1252.93740436 </i>
    <i name="pawpsdc">  36363.20706127 </i>
    <i name="pawaedc"> -35760.44632091 </i>
    <i name="eentropy">     -0.00000000 </i>
    <i name="bandstr">  -2668.06529139 </i>
    <i name="atom">  40341.65184589 </i>
    <i name="e_fr_energy">   -208.80645233 </i>
    <i name="e_wo_entrp">   -208.80645233 </i>
    <i name="e_0_energy">   -208.80645233 </i>
   </energy>
  </scstep>
  <structure>
   <crystal>
    <varray name="basis" >
     <v>       7.80095825       0.00000000       0.00000000 </v>
     <v>       0.00000000       7.80095825       0.00000000 </v>
     <v>       0.00000000       0.00000000      12.31083830 </v>
    </varray>
    <i name="volume">    749.17544500 </i>
    <varray name="rec_basis" >
     <v>       0.12818938       0.00000000       0.00000000 </v>
     <v>       0.00000000       0.12818938       0.00000000 </v>
     <v>       0.00000000       0.00000000       0.08122924 </v>
    </varray>
   </crystal>
   <varray name="positions" >
    <v>       0.24887754       0.24887754       0.85499731 </v>
    <v>       0.75112246       0.24887754       0.85499731 </v>
    <v>       0.24887754       0.75112246       0.85499731 </v>
    <v>       0.75112246       0.75112246       0.85499731 </v>
    <v>       1.00000000       0.00000000       0.64598777 </v>
    <v>       0.50000000       1.00000000       0.64679774 </v>
    <v>       1.00000000       0.50000000       0.64679774 </v>
    <v>       0.50000000       0.50000000       0.64770481 </v>
    <v>       1.00000000       1.00000000       0.35401223 </v>
    <v>       0.50000000       1.00000000       0.35320226 </v>
    <v>       1.00000000       0.50000000       0.35320226 </v>
    <v>       0.50000000       0.50000000       0.35229519 </v>
    <v>       0.24887754       0.24887754       0.14500269 </v>
    <v>       0.75112246       0.24887754       0.14500269 </v>
    <v>       0.24887754       0.75112246       0.14500269 </v>
    <v>       0.75112246       0.75112246       0.14500269 </v>
    <v>       0.50000000       0.00000000       1.00000000 </v>
    <v>       1.00000000       0.50000000       1.00000000 </v>
    <v>       0.50000000       0.50000000       1.00000000 </v>
    <v>       0.25021137       0.25021137       0.50000000 </v>
    <v>       0.74978863       0.25021137       0.50000000 </v>
    <v>       0.25021137       0.74978863       0.50000000 </v>
    <v>       0.74978863       0.74978863       0.50000000 </v>
    <v>       1.00000000       0.24950729       0.75043656 </v>
    <v>       0.50000000       0.24964218       0.75142717 </v>
    <v>       1.00000000       0.75049271       0.75043656 </v>
    <v>       0.50000000       0.75035782       0.75142717 </v>
    <v>       0.24950729       0.00000000       0.75043656 </v>
    <v>       0.75049271       1.00000000       0.75043656 </v>
    <v>       0.24964218       0.50000000       0.75142717 </v>
    <v>       0.75035782       0.50000000       0.75142717 </v>
    <v>       0.24950729       0.00000000       0.24956344 </v>
    <v>       0.75049271       0.00000000       0.24956344 </v>
    <v>       0.24964218       0.50000000       0.24857283 </v>
    <v>       0.75035782       0.50000000       0.24857283 </v>
    <v>       1.00000000       0.24950729       0.24956344 </v>
    <v>       0.50000000       0.24964218       0.24857283 </v>
    <v>       1.00000000       0.75049271       0.24956344 </v>
    <v>       0.50000000       0.75035782       0.24857283 </v>
    <v>       1.00000000       0.00000000       1.00000000 </v>
   </varray>
  </structure>
  <varray name="forces" >
   <v>      -0.00000051      -0.00000051      -0.00001855 </v>
   <v>       0.00000051      -0.00000051      -0.00001855 </v>
   <v>      -0.00000051       0.00000051      -0.00001855 </v>
   <v>       0.00000051       0.00000051      -0.00001855 </v>
   <v>      -0.00000000      -0.00000000       0.00000258 </v>
   <v>      -0.00000000       0.00000000       0.00002121 </v>
   <v>      -0.00000000      -0.00000000       0.00002121 </v>
   <v>       0.00000000      -0.00000000       0.00004335 </v>
   <v>       0.00000000      -0.00000000      -0.00000258 </v>
   <v>      -0.00000000      -0.00000000      -0.00002121 </v>
   <v>       0.00000000       0.00000000      -0.00002121 </v>
   <v>       0.00000000      -0.00000000      -0.00004335 </v>
   <v>      -0.00000051      -0.00000051       0.00001855 </v>
   <v>       0.00000051      -0.00000051       0.00001855 </v>
   <v>      -0.00000051       0.00000051       0.00001855 </v>
   <v>       0.00000051       0.00000051       0.00001855 </v>
   <v>       0.00000000      -0.00000000      -0.00000000 </v>
   <v>       0.00000000       0.00000000      -0.00000000 </v>
   <v>       0.00000000       0.00000000      -0.00000000 </v>
   <v>       0.00001814       0.00001814      -0.00000000 </v>
   <v>      -0.00001814       0.00001814      -0.00000000 </v>
   <v>       0.00001814      -0.00001814      -0.00000000 </v>
   <v>      -0.00001814      -0.00001814      -0.00000000 </v>
   <v>       0.00000000      -0.00000256       0.00000250 </v>
   <v>       0.00000000      -0.00000236      -0.00000321 </v>
   <v>      -0.00000000       0.00000256       0.00000250 </v>
   <v>      -0.00000000       0.00000236      -0.00000321 </v>
   <v>      -0.00000256       0.00000000       0.00000250 </v>
   <v>       0.00000256      -0.00000000       0.00000250 </v>
   <v>      -0.00000236      -0.00000000      -0.00000321 </v>
   <v>       0.00000236      -0.00000000      -0.00000321 </v>
   <v>      -0.00000256       0.00000000      -0.00000250 </v>
   <v>       0.00000256      -0.00000000      -0.00000250 </v>
   <v>      -0.00000236       0.00000000       0.00000321 </v>
   <v>       0.00000236       0.00000000       0.00000321 </v>
   <v>       0.00000000      -0.00000256      -0.00000250 </v>
   <v>       0.00000000      -0.00000236       0.00000321 </v>
   <v>      -0.00000000       0.00000256      -0.00000250 </v>
   <v>      -0.00000000       0.00000236       0.00000321 </v>
   <v>      -0.00000000      -0.00000000      -0.00000000 </v>
  </varray>
  <varray name="stress" >
   <v>      13.37178045       0.00000000      -0.00000000 </v>
   <v>       0.00000000      13.37178045       0.00000000 </v>
   <v>       0.00000000       0.00000000      10.16081276 </v>
  </varray>
  <energy>
   <i name="e_fr_energy">   -208.80645233 </i>
   <i name="e_wo_entrp">   -208.80645233 </i>
   <i name="e_0_energy">   -208.80645233 </i>
  </energy>
  <time name="totalsc">  161.87  161.91</time>
 </calculation>
 <calculation>
  <scstep>
   <time name="dav">   22.73   22.75</time>
   <time name="total">   24.88   24.91</time>
   <energy>
    <i name="alphaZ">   1348.35728886 </i>
    <i name="ewald"> -29655.93247745 </i>
    <i name="hartreedc"> -11430.51600195 </i>
    <i name="XCdc">   1252.93740602 </i>
    <i name="pawpsdc">  36363.20678577 </i>
    <i name="pawaedc"> -35760.44604701 </i>
    <i name="eentropy">     -0.00000000 </i>
    <i name="bandstr">  -2668.06525245 </i>
    <i name="atom">  40341.65184589 </i>
    <i name="e_fr_energy">   -208.80645233 </i>
    <i name="e_wo_entrp">   -208.80645233 </i>
    <i name="e_0_energy">   -208.80645233 </i>
   </energy>
  </scstep>
  <scstep>
   <time name="dav">   22.74   22.74</time>
   <time name="total">   24.89   24.90</time>
   <energy>
    <i name="e_fr_energy">   -208.80645233 </i>
    <i name="e_wo_entrp">   -208.80645233 </i>
    <i name="e_0_energy">   -208.80645233 </i>
   </energy>
  </scstep>
  <scstep>
   <time name="dav">   22.73   22.73</time>
   <time name="total">   24.88   24.88</time>
   <energy>
    <i name="e_fr_energy">   -208.80645233 </i>
    <i name="e_wo_entrp">   -208.80645233 </i>
    <i name="e_0_energy">   -208.80645233 </i>
   </energy>
  </scstep>
  <scstep>
   <time name="dav">   22.71   22.71</time>
   <time name="total">   24.86   24.86</time>
   <energy>
    <i name="e_fr_energy">   -208.80645232 </i>
    <i name="e_wo_entrp">   -208.80645232 </i>
    <i name="e_0_energy">   -208.80645232 </i>
   </energy>
  </scstep>
  <scstep>
   <time name="dav">   22.63   22.63</time>
   <time name="total">   23.49   23.49</time>
   <energy>
    <i name="alphaZ">   1348.35728886 </i>
    <i name="ewald"> -29655.93247745 </i>
    <i name="hartreedc"> -11430.51597640 </i>
    <i name="XCdc">   1252.93740473 </i>
    <i name="pawpsdc">  36363.20659077 </i>
    <i name="pawaedc"> -35760.44585141 </i>
    <i name="eentropy">     -0.00000000 </i>
    <i name="bandstr">  -2668.06527731 </i>
    <i name="atom">  40341.65184589 </i>
    <i name="e_fr_energy">   -208.80645233 </i>
    <i name="e_wo_entrp">   -208.80645233 </i>
    <i name="e_0_energy">   -208.80645233 </i>
   </energy>
  </scstep>
  <structure>
   <crystal>
    <varray name="basis" >
     <v>       7.80095825       0.00000000       0.00000000 </v>
     <v>       0.00000000       7.80095825       0.00000000 </v>
     <v>       0.00000000       0.00000000      12.31083830 </v>
    </varray>
    <i name="volume">    749.17544500 </i>
    <varray name="rec_basis" >
     <v>       0.12818938       0.00000000       0.00000000 </v>
     <v>       0.00000000       0.12818938       0.00000000 </v>
     <v>       0.00000000       0.00000000       0.08122924 </v>
    </varray>
   </crystal>
   <varray name="positions" >
    <v>       0.24887754       0.24887754       0.85499731 </v>
    <v>       0.75112246       0.24887754       0.85499731 </v>
    <v>       0.24887754       0.75112246       0.85499731 </v>
    <v>       0.75112246       0.75112246       0.85499731 </v>
    <v>       0.00000000       0.00000000       0.64598778 </v>
    <v>       0.50000000       0.00000000       0.64679774 </v>
    <v>       0.00000000       0.50000000       0.64679774 </v>
    <v>       0.50000000       0.50000000       0.64770480 </v>
    <v>       0.00000000       0.00000000       0.35401222 </v>
    <v>       0.50000000       0.00000000       0.35320226 </v>
    <v>       0.00000000       0.50000000       0.35320226 </v>
    <v>       0.50000000       0.50000000       0.35229520 </v>
    <v>       0.24887754       0.24887754       0.14500269 </v>
    <v>       0.75112246       0.24887754       0.14500269 </v>
    <v>       0.24887754       0.75112246       0.14500269 </v>
    <v>       0.75112246       0.75112246       0.14500269 </v>
    <v>       0.50000000       0.00000000       0.00000000 </v>
    <v>       0.00000000       0.50000000       0.00000000 </v>
    <v>       0.50000000       0.50000000       0.00000000 </v>
    <v>       0.25021139       0.25021139       0.50000000 </v>
    <v>       0.74978861       0.25021139       0.50000000 </v>
    <v>       0.25021139       0.74978861       0.50000000 </v>
    <v>       0.74978861       0.74978861       0.50000000 </v>
    <v>       0.00000000       0.24950728       0.75043656 </v>
    <v>       0.50000000       0.24964218       0.75142717 </v>
    <v>       0.00000000       0.75049272       0.75043656 </v>
    <v>       0.50000000       0.75035782       0.75142717 </v>
    <v>       0.24950728       0.00000000       0.75043656 </v>
    <v>       0.75049272       0.00000000       0.75043656 </v>
    <v>       0.24964218       0.50000000       0.75142717 </v>
    <v>       0.75035782       0.50000000       0.75142717 </v>
    <v>       0.24950728       0.00000000       0.24956344 </v>
    <v>       0.75049272       0.00000000       0.24956344 </v>
    <v>       0.24964218       0.50000000       0.24857283 </v>
    <v>       0.75035782       0.50000000       0.24857283 </v>
    <v>       0.00000000       0.24950728       0.24956344 </v>
    <v>       0.50000000       0.24964218       0.24857283 </v>
    <v>       0.00000000       0.75049272       0.24956344 </v>
    <v>       0.50000000       0.75035782       0.24857283 </v>
    <v>       0.00000000       0.00000000       0.00000000 </v>
   </varray>
  </structure>
  <varray name="forces" >
   <v>       0.00000637       0.00000637      -0.00002017 </v>
   <v>      -0.00000637       0.00000637      -0.00002017 </v>
   <v>       0.00000637      -0.00000637      -0.00002017 </v>
   <v>      -0.00000637      -0.00000637      -0.00002017 </v>
   <v>       0.00000000      -0.00000000       0.00003057 </v>
   <v>       0.00000000      -0.00000000       0.00002207 </v>
   <v>       0.00000000      -0.00000000       0.00002207 </v>
   <v>       0.00000000      -0.00000000       0.00001689 </v>
   <v>       0.00000000      -0.00000000      -0.00003057 </v>
   <v>       0.00000000      -0.00000000      -0.00002207 </v>
   <v>       0.00000000      -0.00000000      -0.00002207 </v>
   <v>       0.00000000      -0.00000000      -0.00001689 </v>
   <v>       0.00000637       0.00000637       0.00002017 </v>
   <v>      -0.00000637       0.00000637       0.00002017 </v>
   <v>       0.00000637      -0.00000637       0.00002017 </v>
   <v>      -0.00000637      -0.00000637       0.00002017 </v>
   <v>       0.00000000      -0.00000000       0.00000000 </v>
   <v>       0.00000000      -0.00000000       0.00000000 </v>
   <v>       0.00000000      -0.00000000       0.00000000 </v>
   <v>       0.00001781       0.00001781       0.00000000 </v>
   <v>      -0.00001781       0.00001781       0.00000000 </v>
   <v>       0.00001781      -0.00001781       0.00000000 </v>
   <v>      -0.00001781      -0.00001781       0.00000000 </v>
   <v>       0.00000000      -0.00000359       0.00000272 </v>
   <v>       0.00000000      -0.00000329      -0.00000352 </v>
   <v>       0.00000000       0.00000359       0.00000272 </v>
   <v>       0.00000000       0.00000329      -0.00000352 </v>
   <v>      -0.00000359      -0.00000000       0.00000272 </v>
   <v>       0.00000359      -0.00000000       0.00000272 </v>
   <v>      -0.00000329      -0.00000000      -0.00000352 </v>
   <v>       0.00000329      -0.00000000      -0.00000352 </v>
   <v>      -0.00000359      -0.00000000      -0.00000272 </v>
   <v>       0.00000359      -0.00000000      -0.00000272 </v>
   <v>      -0.00000329      -0.00000000       0.00000352 </v>
   <v>       0.00000329      -0.00000000       0.00000352 </v>
   <v>       0.00000000      -0.00000359      -0.00000272 </v>
   <v>       0.00000000      -0.00000329       0.00000352 </v>
   <v>       0.00000000       0.00000359      -0.00000272 </v>
   <v>       0.00000000       0.00000329       0.00000352 </v>
   <v>       0.00000000      -0.00000000       0.00000000 </v>
  </varray>
  <varray name="stress" >
   <v>      13.37175563       0.00000000      -0.00000000 </v>
   <v>       0.00000000      13.37175563       0.00000000 </v>
   <v>      -0.00000000       0.00000000      10.16074902 </v>
  </varray>
  <energy>
   <i name="e_fr_energy">   -208.80645233 </i>
   <i name="e_wo_entrp">   -208.80645233 </i>
   <i name="e_0_energy">   -208.80645233 </i>
  </energy>
  <time name="totalsc">  153.81  153.85</time>
 </calculation>
 <calculation>
  <scstep>
   <time name="dav">   22.64   22.65</time>
   <time name="total">   24.80   24.81</time>
   <energy>
    <i name="alphaZ">   1348.35728886 </i>
    <i name="ewald"> -29655.93249509 </i>
    <i name="hartreedc"> -11430.51595773 </i>
    <i name="XCdc">   1252.93740461 </i>
    <i name="pawpsdc">  36363.20648472 </i>
    <i name="pawaedc"> -35760.44574567 </i>
    <i name="eentropy">     -0.00000000 </i>
    <i name="bandstr">  -2668.06527792 </i>
    <i name="atom">  40341.65184589 </i>
    <i name="e_fr_energy">   -208.80645233 </i>
    <i name="e_wo_entrp">   -208.80645233 </i>
    <i name="e_0_energy">   -208.80645233 </i>
   </energy>
  </scstep>
  <scstep>
   <time name="dav">   22.54   22.54</time>
   <time name="total">   24.69   24.69</time>
   <energy>
    <i name="e_fr_energy">   -208.80645233 </i>
    <i name="e_wo_entrp">   -208.80645233 </i>
    <i name="e_0_energy">   -208.80645233 </i>
   </energy>
  </scstep>
  <scstep>
   <time name="dav">   22.53   22.54</time>
   <time name="total">   24.69   24.70</time>
   <energy>
    <i name="e_fr_energy">   -208.80645233 </i>
    <i name="e_wo_entrp">   -208.80645233 </i>
    <i name="e_0_energy">   -208.80645233 </i>
   </energy>
  </scstep>
  <scstep>
   <time name="dav">   22.44   22.44</time>
   <time name="total">   24.60   24.60</time>
   <energy>
    <i name="e_fr_energy">   -208.80645233 </i>
    <i name="e_wo_entrp">   -208.80645233 </i>
    <i name="e_0_energy">   -208.80645233 </i>
   </energy>
  </scstep>
  <scstep>
   <time name="dav">   22.35   22.35</time>
   <time name="total">   23.21   23.21</time>
   <energy>
    <i name="alphaZ">   1348.35728886 </i>
    <i name="ewald"> -29655.93249509 </i>
    <i name="hartreedc"> -11430.51594994 </i>
    <i name="XCdc">   1252.93740433 </i>
    <i name="pawpsdc">  36363.20637719 </i>
    <i name="pawaedc"> -35760.44563875 </i>
    <i name="eentropy">     -0.00000000 </i>
    <i name="bandstr">  -2668.06528483 </i>
    <i name="atom">  40341.65184589 </i>
    <i name="e_fr_energy">   -208.80645233 </i>
    <i name="e_wo_entrp">   -208.80645233 </i>
    <i name="e_0_energy">   -208.80645233 </i>
   </energy>
  </scstep>
  <structure>
   <crystal>
    <varray name="basis" >
     <v>       7.80095825       0.00000000       0.00000000 </v>
     <v>       0.00000000       7.80095825       0.00000000 </v>
     <v>       0.00000000       0.00000000      12.31083830 </v>
    </varray>
    <i name="volume">    749.17544500 </i>
    <varray name="rec_basis" >
     <v>       0.12818938       0.00000000       0.00000000 </v>
     <v>       0.00000000       0.12818938       0.00000000 </v>
     <v>       0.00000000       0.00000000       0.08122924 </v>
    </varray>
   </crystal>
   <varray name="positions" >
    <v>       0.24887755       0.24887755       0.85499731 </v>
    <v>       0.75112245       0.24887755       0.85499731 </v>
    <v>       0.24887755       0.75112245       0.85499731 </v>
    <v>       0.75112245       0.75112245       0.85499731 </v>
    <v>       1.00000000       0.00000000       0.64598781 </v>
    <v>       0.50000000       1.00000000       0.64679774 </v>
    <v>       1.00000000       0.50000000       0.64679774 </v>
    <v>       0.50000000       0.50000000       0.64770478 </v>
    <v>       1.00000000       1.00000000       0.35401219 </v>
    <v>       0.50000000       1.00000000       0.35320226 </v>
    <v>       1.00000000       0.50000000       0.35320226 </v>
    <v>       0.50000000       0.50000000       0.35229522 </v>
    <v>       0.24887755       0.24887755       0.14500269 </v>
    <v>       0.75112245       0.24887755       0.14500269 </v>
    <v>       0.24887755       0.75112245       0.14500269 </v>
    <v>       0.75112245       0.75112245       0.14500269 </v>
    <v>       0.50000000       0.00000000       1.00000000 </v>
    <v>       1.00000000       0.50000000       1.00000000 </v>
    <v>       0.50000000       0.50000000       1.00000000 </v>
    <v>       0.25021141       0.25021141       0.50000000 </v>
    <v>       0.74978859       0.25021141       0.50000000 </v>
    <v>       0.25021141       0.74978859       0.50000000 </v>
    <v>       0.74978859       0.74978859       0.50000000 </v>
    <v>       1.00000000       0.24950728       0.75043657 </v>
    <v>       0.50000000       0.24964217       0.75142717 </v>
    <v>       1.00000000       0.75049272       0.75043657 </v>
    <v>       0.50000000       0.75035783       0.75142717 </v>
    <v>       0.24950728       0.00000000       0.75043657 </v>
    <v>       0.75049272       1.00000000       0.75043657 </v>
    <v>       0.24964217       0.50000000       0.75142717 </v>
    <v>       0.75035783       0.50000000       0.75142717 </v>
    <v>       0.24950728       0.00000000       0.24956343 </v>
    <v>       0.75049272       0.00000000       0.24956343 </v>
    <v>       0.24964217       0.50000000       0.24857283 </v>
    <v>       0.75035783       0.50000000       0.24857283 </v>
    <v>       1.00000000       0.24950728       0.24956343 </v>
    <v>       0.50000000       0.24964217       0.24857283 </v>
    <v>       1.00000000       0.75049272       0.24956343 </v>
    <v>       0.50000000       0.75035783       0.24857283 </v>
    <v>       1.00000000       0.00000000       1.00000000 </v>
   </varray>
  </structure>
  <varray name="forces" >
   <v>       0.00000355       0.00000355      -0.00001975 </v>
   <v>      -0.00000355       0.00000355      -0.00001975 </v>
   <v>       0.00000355      -0.00000355      -0.00001975 </v>
   <v>      -0.00000355      -0.00000355      -0.00001975 </v>
   <v>      -0.00000000       0.00000000       0.00001762 </v>
   <v>      -0.00000000       0.00000000       0.00002241 </v>
   <v>      -0.00000000       0.00000000       0.00002241 </v>
   <v>      -0.00000000      -0.00000000       0.00003131 </v>
   <v>       0.00000000       0.00000000      -0.00001762 </v>
   <v>       0.00000000      -0.00000000      -0.00002241 </v>
   <v>       0.00000000       0.00000000      -0.00002241 </v>
   <v>      -0.00000000      -0.00000000      -0.00003131 </v>
   <v>       0.00000355       0.00000355       0.00001975 </v>
   <v>      -0.00000355       0.00000355       0.00001975 </v>
   <v>       0.00000355      -0.00000355       0.00001975 </v>
   <v>      -0.00000355      -0.00000355       0.00001975 </v>
   <v>      -0.00000000       0.00000000       0.00000000 </v>
   <v>      -0.00000000      -0.00000000       0.00000000 </v>
   <v>      -0.00000000      -0.00000000       0.00000000 </v>
   <v>       0.00001716       0.00001716       0.00000000 </v>
   <v>      -0.00001716       0.00001716       0.00000000 </v>
   <v>       0.00001716      -0.00001716       0.00000000 </v>
   <v>      -0.00001716      -0.00001716       0.00000000 </v>
   <v>       0.00000000      -0.00000303       0.00000228 </v>
   <v>       0.00000000      -0.00000276      -0.00000342 </v>
   <v>      -0.00000000       0.00000303       0.00000228 </v>
   <v>      -0.00000000       0.00000276      -0.00000342 </v>
   <v>      -0.00000303      -0.00000000       0.00000228 </v>
   <v>       0.00000303       0.00000000       0.00000228 </v>
   <v>      -0.00000276      -0.00000000      -0.00000342 </v>
   <v>       0.00000276       0.00000000      -0.00000342 </v>
   <v>      -0.00000303      -0.00000000      -0.00000228 </v>
   <v>       0.00000303       0.00000000      -0.00000228 </v>
   <v>      -0.00000276      -0.00000000       0.00000342 </v>
   <v>       0.00000276       0.00000000       0.00000342 </v>
   <v>       0.00000000      -0.00000303      -0.00000228 </v>
   <v>       0.00000000      -0.00000276       0.00000342 </v>
   <v>      -0.00000000       0.00000303      -0.00000228 </v>
   <v>      -0.00000000       0.00000276       0.00000342 </v>
   <v>       0.00000000      -0.00000000       0.00000000 </v>
  </varray>
  <varray name="stress" >
   <v>      13.37175781       0.00000000       0.00000000 </v>
   <v>       0.00000000      13.37175781       0.00000000 </v>
   <v>      -0.00000000       0.00000000      10.16075458 </v>
  </varray>
  <energy>
   <i name="e_fr_energy">   -208.80645233 </i>
   <i name="e_wo_entrp">   -208.80645233 </i>
   <i name="e_0_energy">   -208.80645233 </i>
  </energy>
  <time name="totalsc">  152.84  152.86</time>
 </calculation>
 <calculation>
  <scstep>
   <time name="dav">   24.01   24.01</time>
   <time name="total">   26.17   26.18</time>
   <energy>
    <i name="alphaZ">   1348.35728886 </i>
    <i name="ewald"> -29655.93253035 </i>
    <i name="hartreedc"> -11430.51591440 </i>
    <i name="XCdc">   1252.93740424 </i>
    <i name="pawpsdc">  36363.20637411 </i>
    <i name="pawaedc"> -35760.44563583 </i>
    <i name="eentropy">     -0.00000000 </i>
    <i name="bandstr">  -2668.06528484 </i>
    <i name="atom">  40341.65184589 </i>
    <i name="e_fr_energy">   -208.80645232 </i>
    <i name="e_wo_entrp">   -208.80645232 </i>
    <i name="e_0_energy">   -208.80645232 </i>
   </energy>
  </scstep>
  <scstep>
   <time name="dav">   22.16   22.16</time>
   <time name="total">   24.32   24.32</time>
   <energy>
    <i name="e_fr_energy">   -208.80645233 </i>
    <i name="e_wo_entrp">   -208.80645233 </i>
    <i name="e_0_energy">   -208.80645233 </i>
   </energy>
  </scstep>
  <scstep>
   <time name="dav">   22.02   22.02</time>
   <time name="total">   24.18   24.18</time>
   <energy>
    <i name="e_fr_energy">   -208.80645233 </i>
    <i name="e_wo_entrp">   -208.80645233 </i>
    <i name="e_0_energy">   -208.80645233 </i>
   </energy>
  </scstep>
  <scstep>
   <time name="dav">   21.95   21.95</time>
   <time name="total">   24.10   24.11</time>
   <energy>
    <i name="e_fr_energy">   -208.80645233 </i>
    <i name="e_wo_entrp">   -208.80645233 </i>
    <i name="e_0_energy">   -208.80645233 </i>
   </energy>
  </scstep>
  <scstep>
   <time name="dav">   21.95   21.95</time>
   <time name="total">   22.82   22.82</time>
   <energy>
    <i name="alphaZ">   1348.35728886 </i>
    <i name="ewald"> -29655.93253035 </i>
    <i name="hartreedc"> -11430.51591547 </i>
    <i name="XCdc">   1252.93740426 </i>
    <i name="pawpsdc">  36363.20632209 </i>
    <i name="pawaedc"> -35760.44558397 </i>
    <i name="eentropy">     -0.00000000 </i>
    <i name="bandstr">  -2668.06528363 </i>
    <i name="atom">  40341.65184589 </i>
    <i name="e_fr_energy">   -208.80645232 </i>
    <i name="e_wo_entrp">   -208.80645232 </i>
    <i name="e_0_energy">   -208.80645232 </i>
   </energy>
  </scstep>
  <structure>
   <crystal>
    <varray name="basis" >
     <v>       7.80095825       0.00000000       0.00000000 </v>
     <v>       0.00000000       7.80095825       0.00000000 </v>
     <v>       0.00000000       0.00000000      12.31083830 </v>
    </varray>
    <i name="volume">    749.17544500 </i>
    <varray name="rec_basis" >
     <v>       0.12818938       0.00000000       0.00000000 </v>
     <v>       0.00000000       0.12818938       0.00000000 </v>
     <v>       0.00000000       0.00000000       0.08122924 </v>
    </varray>
   </crystal>
   <varray name="positions" >
    <v>       0.24887756       0.24887756       0.85499731 </v>
    <v>       0.75112244       0.24887756       0.85499731 </v>
    <v>       0.24887756       0.75112244       0.85499731 </v>
    <v>       0.75112244       0.75112244       0.85499731 </v>
    <v>       0.00000000       0.00000000       0.64598785 </v>
    <v>       0.50000000       0.00000000       0.64679774 </v>
    <v>       0.00000000       0.50000000       0.64679774 </v>
    <v>       0.50000000       0.50000000       0.64770473 </v>
    <v>       0.00000000       0.00000000       0.35401215 </v>
    <v>       0.50000000       0.00000000       0.35320226 </v>
    <v>       0.00000000       0.50000000       0.35320226 </v>
    <v>       0.50000000       0.50000000       0.35229527 </v>
    <v>       0.24887756       0.24887756       0.14500269 </v>
    <v>       0.75112244       0.24887756       0.14500269 </v>
    <v>       0.24887756       0.75112244       0.14500269 </v>
    <v>       0.75112244       0.75112244       0.14500269 </v>
    <v>       0.50000000       0.00000000       0.00000000 </v>
    <v>       0.00000000       0.50000000       0.00000000 </v>
    <v>       0.50000000       0.50000000       0.00000000 </v>
    <v>       0.25021146       0.25021146       0.50000000 </v>
    <v>       0.74978854       0.25021146       0.50000000 </v>
    <v>       0.25021146       0.74978854       0.50000000 </v>
    <v>       0.74978854       0.74978854       0.50000000 </v>
    <v>       0.00000000       0.24950727       0.75043657 </v>
    <v>       0.50000000       0.24964216       0.75142716 </v>
    <v>       0.00000000       0.75049273       0.75043657 </v>
    <v>       0.50000000       0.75035784       0.75142716 </v>
    <v>       0.24950727       0.00000000       0.75043657 </v>
    <v>       0.75049273       0.00000000       0.75043657 </v>
    <v>       0.24964216       0.50000000       0.75142716 </v>
    <v>       0.75035784       0.50000000       0.75142716 </v>
    <v>       0.24950727       0.00000000       0.24956343 </v>
    <v>       0.75049273       0.00000000       0.24956343 </v>
    <v>       0.24964216       0.50000000       0.24857284 </v>
    <v>       0.75035784       0.50000000       0.24857284 </v>
    <v>       0.00000000       0.24950727       0.24956343 </v>
    <v>       0.50000000       0.24964216       0.24857284 </v>
    <v>       0.00000000       0.75049273       0.24956343 </v>
    <v>       0.50000000       0.75035784       0.24857284 </v>
    <v>       0.00000000       0.00000000       0.00000000 </v>
   </varray>
  </structure>
  <varray name="forces" >
   <v>       0.00000392       0.00000392      -0.00001956 </v>
   <v>      -0.00000392       0.00000392      -0.00001956 </v>
   <v>       0.00000392      -0.00000392      -0.00001956 </v>
   <v>      -0.00000392      -0.00000392      -0.00001956 </v>
   <v>      -0.00000000       0.00000000       0.00002051 </v>
   <v>      -0.00000000       0.00000000       0.00002278 </v>
   <v>      -0.00000000       0.00000000       0.00002278 </v>
   <v>      -0.00000000       0.00000000       0.00002841 </v>
   <v>      -0.00000000       0.00000000      -0.00002051 </v>
   <v>      -0.00000000       0.00000000      -0.00002278 </v>
   <v>      -0.00000000       0.00000000      -0.00002278 </v>
   <v>      -0.00000000       0.00000000      -0.00002841 </v>
   <v>       0.00000392       0.00000392       0.00001956 </v>
   <v>      -0.00000392       0.00000392       0.00001956 </v>
   <v>       0.00000392      -0.00000392       0.00001956 </v>
   <v>      -0.00000392      -0.00000392       0.00001956 </v>
   <v>      -0.00000000       0.00000000      -0.00000000 </v>
   <v>      -0.00000000       0.00000000      -0.00000000 </v>
   <v>      -0.00000000       0.00000000      -0.00000000 </v>
   <v>       0.00001592       0.00001592      -0.00000000 </v>
   <v>      -0.00001592       0.00001592      -0.00000000 </v>
   <v>       0.00001592      -0.00001592      -0.00000000 </v>
   <v>      -0.00001592      -0.00001592      -0.00000000 </v>
   <v>      -0.00000000      -0.00000230       0.00000162 </v>
   <v>      -0.00000000      -0.00000205      -0.00000339 </v>
   <v>      -0.00000000       0.00000230       0.00000162 </v>
   <v>      -0.00000000       0.00000205      -0.00000339 </v>
   <v>      -0.00000230       0.00000000       0.00000162 </v>
   <v>       0.00000230       0.00000000       0.00000162 </v>
   <v>      -0.00000205       0.00000000      -0.00000339 </v>
   <v>       0.00000205       0.00000000      -0.00000339 </v>
   <v>      -0.00000230       0.00000000      -0.00000162 </v>
   <v>       0.00000230       0.00000000      -0.00000162 </v>
   <v>      -0.00000205       0.00000000       0.00000339 </v>
   <v>       0.00000205       0.00000000       0.00000339 </v>
   <v>      -0.00000000      -0.00000230      -0.00000162 </v>
   <v>      -0.00000000      -0.00000205       0.00000339 </v>
   <v>      -0.00000000       0.00000230      -0.00000162 </v>
   <v>      -0.00000000       0.00000205       0.00000339 </v>
   <v>      -0.00000000       0.00000000      -0.00000000 </v>
  </varray>
  <varray name="stress" >
   <v>      13.37175301       0.00000000       0.00000000 </v>
   <v>       0.00000000      13.37175301       0.00000000 </v>
   <v>      -0.00000000       0.00000000      10.16074971 </v>
  </varray>
  <energy>
   <i name="e_fr_energy">   -208.80645232 </i>
   <i name="e_wo_entrp">   -208.80645232 </i>
   <i name="e_0_energy">   -208.80645232 </i>
  </energy>
  <time name="totalsc">  152.41  152.42</time>
 </calculation>
 <calculation>
  <scstep>
   <time name="dav">   26.76   26.76</time>
   <time name="total">   28.92   28.92</time>
   <energy>
    <i name="alphaZ">   1348.35728886 </i>
    <i name="ewald"> -29655.93260088 </i>
    <i name="hartreedc"> -11430.51584578 </i>
    <i name="XCdc">   1252.93740408 </i>
    <i name="pawpsdc">  36363.20632913 </i>
    <i name="pawaedc"> -35760.44559100 </i>
    <i name="eentropy">     -0.00000000 </i>
    <i name="bandstr">  -2668.06528262 </i>
    <i name="atom">  40341.65184589 </i>
    <i name="e_fr_energy">   -208.80645232 </i>
    <i name="e_wo_entrp">   -208.80645232 </i>
    <i name="e_0_energy">   -208.80645232 </i>
   </energy>
  </scstep>
  <scstep>
   <time name="dav">   21.96   21.96</time>
   <time name="total">   24.11   24.11</time>
   <energy>
    <i name="e_fr_energy">   -208.80645233 </i>
    <i name="e_wo_entrp">   -208.80645233 </i>
    <i name="e_0_energy">   -208.80645233 </i>
   </energy>
  </scstep>
  <scstep>
   <time name="dav">   21.86   21.88</time>
   <time name="total">   24.01   24.04</time>
   <energy>
    <i name="e_fr_energy">   -208.80645233 </i>
    <i name="e_wo_entrp">   -208.80645233 </i>
    <i name="e_0_energy">   -208.80645233 </i>
   </energy>
  </scstep>
  <scstep>
   <time name="dav">   21.85   21.86</time>
   <time name="total">   24.00   24.01</time>
   <energy>
    <i name="e_fr_energy">   -208.80645233 </i>
    <i name="e_wo_entrp">   -208.80645233 </i>
    <i name="e_0_energy">   -208.80645233 </i>
   </energy>
  </scstep>
  <scstep>
   <time name="dav">   21.84   21.86</time>
   <time name="total">   22.70   22.72</time>
   <energy>
    <i name="alphaZ">   1348.35728886 </i>
    <i name="ewald"> -29655.93260088 </i>
    <i name="hartreedc"> -11430.51584627 </i>
    <i name="XCdc">   1252.93740399 </i>
    <i name="pawpsdc">  36363.20625388 </i>
    <i name="pawaedc"> -35760.44551571 </i>
    <i name="eentropy">     -0.00000000 </i>
    <i name="bandstr">  -2668.06528208 </i>
    <i name="atom">  40341.65184589 </i>
    <i name="e_fr_energy">   -208.80645233 </i>
    <i name="e_wo_entrp">   -208.80645233 </i>
    <i name="e_0_energy">   -208.80645233 </i>
   </energy>
  </scstep>
  <structure>
   <crystal>
    <varray name="basis" >
     <v>       7.80095825       0.00000000       0.00000000 </v>
     <v>       0.00000000       7.80095825       0.00000000 </v>
     <v>       0.00000000       0.00000000      12.31083830 </v>
    </varray>
    <i name="volume">    749.17544500 </i>
    <varray name="rec_basis" >
     <v>       0.12818938       0.00000000       0.00000000 </v>
     <v>       0.00000000       0.12818938       0.00000000 </v>
     <v>       0.00000000       0.00000000       0.08122924 </v>
    </varray>
   </crystal>
   <varray name="positions" >
    <v>       0.24887759       0.24887759       0.85499730 </v>
    <v>       0.75112241       0.24887759       0.85499730 </v>
    <v>       0.24887759       0.75112241       0.85499730 </v>
    <v>       0.75112241       0.75112241       0.85499730 </v>
    <v>       1.00000000       0.00000000       0.64598793 </v>
    <v>       0.50000000       1.00000000       0.64679774 </v>
    <v>       1.00000000       0.50000000       0.64679774 </v>
    <v>       0.50000000       0.50000000       0.64770464 </v>
    <v>       1.00000000       1.00000000       0.35401207 </v>
    <v>       0.50000000       1.00000000       0.35320226 </v>
    <v>       1.00000000       0.50000000       0.35320226 </v>
    <v>       0.50000000       0.50000000       0.35229536 </v>
    <v>       0.24887759       0.24887759       0.14500270 </v>
    <v>       0.75112241       0.24887759       0.14500270 </v>
    <v>       0.24887759       0.75112241       0.14500270 </v>
    <v>       0.75112241       0.75112241       0.14500270 </v>
    <v>       0.50000000       0.00000000       1.00000000 </v>
    <v>       1.00000000       0.50000000       1.00000000 </v>
    <v>       0.50000000       0.50000000       1.00000000 </v>
    <v>       0.25021156       0.25021156       0.50000000 </v>
    <v>       0.74978844       0.25021156       0.50000000 </v>
    <v>       0.25021156       0.74978844       0.50000000 </v>
    <v>       0.74978844       0.74978844       0.50000000 </v>
    <v>       1.00000000       0.24950724       0.75043658 </v>
    <v>       0.50000000       0.24964214       0.75142715 </v>
    <v>       1.00000000       0.75049276       0.75043658 </v>
    <v>       0.50000000       0.75035786       0.75142715 </v>
    <v>       0.24950724       0.00000000       0.75043658 </v>
    <v>       0.75049276       1.00000000       0.75043658 </v>
    <v>       0.24964214       0.50000000       0.75142715 </v>
    <v>       0.75035786       0.50000000       0.75142715 </v>
    <v>       0.24950724       0.00000000       0.24956342 </v>
    <v>       0.75049276       0.00000000       0.24956342 </v>
    <v>       0.24964214       0.50000000       0.24857285 </v>
    <v>       0.75035786       0.50000000       0.24857285 </v>
    <v>       1.00000000       0.24950724       0.24956342 </v>
    <v>       0.50000000       0.24964214       0.24857285 </v>
    <v>       1.00000000       0.75049276       0.24956342 </v>
    <v>       0.50000000       0.75035786       0.24857285 </v>
    <v>       1.00000000       0.00000000       1.00000000 </v>
   </varray>
  </structure>
  <varray name="forces" >
   <v>       0.00000191       0.00000191      -0.00001888 </v>
[...]
       <r>    6.1372    1.0000 </r>
       <r>    6.1539    1.0000 </r>
       <r>    8.1876    0.0000 </r>
       <r>    8.2165    0.0000 </r>
       <r>    8.2165    0.0000 </r>
       <r>    8.2507    0.0000 </r>
       <r>    8.9569    0.0000 </r>
       <r>    8.9879    0.0000 </r>
       <r>    8.9879    0.0000 </r>
       <r>    9.0204    0.0000 </r>
       <r>    9.4022    0.0000 </r>
       <r>    9.4121    0.0000 </r>
       <r>    9.4320    0.0000 </r>
       <r>    9.4320    0.0000 </r>
       <r>    9.7159    0.0000 </r>
       <r>    9.7324    0.0000 </r>
       <r>    9.7582    0.0000 </r>
       <r>    9.7582    0.0000 </r>
       <r>    9.9877    0.0000 </r>
       <r>    9.9877    0.0000 </r>
       <r>   10.0276    0.0000 </r>
       <r>   10.0459    0.0000 </r>
       <r>   10.0624    0.0000 </r>
       <r>   10.0624    0.0000 </r>
       <r>   10.0635    0.0000 </r>
       <r>   10.0786    0.0000 </r>
       <r>   10.9137    0.0000 </r>
       <r>   10.9137    0.0000 </r>
       <r>   10.9357    0.0000 </r>
       <r>   10.9466    0.0000 </r>
       <r>   10.9899    0.0000 </r>
       <r>   10.9899    0.0000 </r>
       <r>   10.9946    0.0000 </r>
       <r>   10.9950    0.0000 </r>
       <r>   11.5509    0.0000 </r>
       <r>   11.5763    0.0000 </r>
       <r>   11.5763    0.0000 </r>
       <r>   11.6275    0.0000 </r>
       <r>   11.6429    0.0000 </r>
       <r>   11.6429    0.0000 </r>
       <r>   11.6801    0.0000 </r>
       <r>   11.6821    0.0000 </r>
      </set>
     </set>
    </set>
   </array>
  </eigenvalues>
  <separator name="orbital magnetization" >
   <v name="MAGDIPOLOUT">      0.00000000      0.00000000      0.00000000</v>
  </separator>
  <dos>
   <i name="efermi">      6.71203093 </i>
   <total>
    <array>
     <dimension dim="1">gridpoints</dimension>
     <dimension dim="2">spin</dimension>
     <field>energy</field>
     <field>total</field>
     <field>integrated</field>
     <set>
      <set comment="spin 1">
       <r>   -18.0065     0.0000     0.0000 </r>
       <r>   -17.9019     0.0000     0.0000 </r>
       <r>   -17.7974     0.0000     0.0000 </r>
       <r>   -17.6928     0.0000     0.0000 </r>
       <r>   -17.5882     0.0000     0.0000 </r>
       <r>   -17.4836     0.0000     0.0000 </r>
       <r>   -17.3790     0.0000     0.0000 </r>
       <r>   -17.2744     0.0000     0.0000 </r>
       <r>   -17.1699     0.0000     0.0000 </r>
       <r>   -17.0653     0.0000     0.0000 </r>
       <r>   -16.9607     0.0000     0.0000 </r>
       <r>   -16.8561     0.0000     0.0000 </r>
       <r>   -16.7515     0.0000     0.0000 </r>
       <r>   -16.6470     1.3434     0.1405 </r>
       <r>   -16.5424   122.9833    13.0021 </r>
       <r>   -16.4378   193.3387    33.2216 </r>
       <r>   -16.3332   857.2021   122.8680 </r>
       <r>   -16.2286   353.9855   159.8880 </r>
       <r>   -16.1241     1.0714   160.0000 </r>
       <r>   -16.0195     0.0000   160.0000 </r>
       <r>   -15.9149     0.0000   160.0000 </r>
       <r>   -15.8103     0.0000   160.0000 </r>
       <r>   -15.7057     0.0000   160.0000 </r>
       <r>   -15.6012     0.0000   160.0000 </r>
       <r>   -15.4966     0.0000   160.0000 </r>
       <r>   -15.3920     0.0000   160.0000 </r>
       <r>   -15.2874     0.0000   160.0000 </r>
       <r>   -15.1828     0.0000   160.0000 </r>
       <r>   -15.0783     0.0000   160.0000 </r>
       <r>   -14.9737     0.0000   160.0000 </r>
       <r>   -14.8691     0.0000   160.0000 </r>
       <r>   -14.7645     0.0000   160.0000 </r>
       <r>   -14.6599     0.0000   160.0000 </r>
       <r>   -14.5554     0.0000   160.0000 </r>
       <r>   -14.4508     0.0000   160.0000 </r>
       <r>   -14.3462     0.0000   160.0000 </r>
       <r>   -14.2416     0.0000   160.0000 </r>
       <r>   -14.1370     0.0000   160.0000 </r>
       <r>   -14.0325     0.0000   160.0000 </r>
       <r>   -13.9279     0.0000   160.0000 </r>
       <r>   -13.8233     0.0000   160.0000 </r>
       <r>   -13.7187     0.0000   160.0000 </r>
       <r>   -13.6141     0.0000   160.0000 </r>
       <r>   -13.5096     0.0000   160.0000 </r>
       <r>   -13.4050     0.0000   160.0000 </r>
       <r>   -13.3004     0.0000   160.0000 </r>
       <r>   -13.1958     0.0000   160.0000 </r>
       <r>   -13.0912     0.0000   160.0000 </r>
       <r>   -12.9867     0.0931   160.0097 </r>
       <r>   -12.8821     2.3680   160.2574 </r>
       <r>   -12.7775     8.7508   161.1725 </r>
       <r>   -12.6729     9.2977   162.1449 </r>
       <r>   -12.5683     2.1084   162.3654 </r>
       <r>   -12.4638    11.9894   163.6192 </r>
       <r>   -12.3592    15.1624   165.2049 </r>
       <r>   -12.2546     0.7367   165.2820 </r>
       <r>   -12.1500     7.8465   166.1026 </r>
       <r>   -12.0454    14.3006   167.5981 </r>
       <r>   -11.9409    15.5309   169.2223 </r>
       <r>   -11.8363     7.4005   169.9963 </r>
       <r>   -11.7317    11.8764   171.2383 </r>
       <r>   -11.6271     2.4684   171.4965 </r>
       <r>   -11.5225    30.4679   174.6828 </r>
       <r>   -11.4180    18.7720   176.6460 </r>
       <r>   -11.3134    16.6379   178.3860 </r>
       <r>   -11.2088    13.9370   179.8435 </r>
       <r>   -11.1042    38.1230   183.8305 </r>
       <r>   -10.9996    18.3455   185.7490 </r>
       <r>   -10.8950     5.1818   186.2910 </r>
       <r>   -10.7905    18.5496   188.2309 </r>
       <r>   -10.6859    14.7319   189.7715 </r>
       <r>   -10.5813    11.0825   190.9306 </r>
       <r>   -10.4767     9.5235   191.9265 </r>
       <r>   -10.3721     0.7021   192.0000 </r>
       <r>   -10.2676     0.0004   192.0000 </r>
       <r>   -10.1630     0.0000   192.0000 </r>
       <r>   -10.0584     0.0000   192.0000 </r>
       <r>    -9.9538     0.0000   192.0000 </r>
       <r>    -9.8492     0.0000   192.0000 </r>
       <r>    -9.7447     0.0000   192.0000 </r>
       <r>    -9.6401     0.0000   192.0000 </r>
       <r>    -9.5355     0.0000   192.0000 </r>
       <r>    -9.4309     0.0000   192.0000 </r>
       <r>    -9.3263     0.0000   192.0000 </r>
       <r>    -9.2218     0.0000   192.0000 </r>
       <r>    -9.1172     0.0000   192.0000 </r>
       <r>    -9.0126     0.0000   192.0000 </r>
       <r>    -8.9080     0.0000   192.0000 </r>
       <r>    -8.8034     0.0000   192.0000 </r>
       <r>    -8.6989     0.0000   192.0000 </r>
       <r>    -8.5943     0.0000   192.0000 </r>
       <r>    -8.4897     0.0000   192.0000 </r>
       <r>    -8.3851     0.0000   192.0000 </r>
       <r>    -8.2805     0.0000   192.0000 </r>
       <r>    -8.1760     0.0000   192.0000 </r>
       <r>    -8.0714     0.0000   192.0000 </r>
       <r>    -7.9668     0.0000   192.0000 </r>
       <r>    -7.8622     0.0000   192.0000 </r>
       <r>    -7.7576     0.0000   192.0000 </r>
       <r>    -7.6531     0.0000   192.0000 </r>
       <r>    -7.5485     0.0000   192.0000 </r>
       <r>    -7.4439     0.0000   192.0000 </r>
       <r>    -7.3393     0.0000   192.0000 </r>
       <r>    -7.2347     0.0000   192.0000 </r>
       <r>    -7.1302     0.0000   192.0000 </r>
       <r>    -7.0256     0.0000   192.0000 </r>
       <r>    -6.9210     0.0000   192.0000 </r>
       <r>    -6.8164     0.0000   192.0000 </r>
       <r>    -6.7118     0.0000   192.0000 </r>
       <r>    -6.6073     0.0000   192.0000 </r>
       <r>    -6.5027     0.0000   192.0000 </r>
       <r>    -6.3981     0.0035   192.0004 </r>
       <r>    -6.2935     0.2969   192.0314 </r>
       <r>    -6.1889     1.6943   192.2086 </r>
       <r>    -6.0844     3.8518   192.6114 </r>
       <r>    -5.9798     3.8989   193.0192 </r>
       <r>    -5.8752     2.9548   193.3282 </r>
       <r>    -5.7706     8.0541   194.1705 </r>
       <r>    -5.6660    10.7904   195.2990 </r>
       <r>    -5.5615     5.3899   195.8626 </r>
       <r>    -5.4569     8.4217   196.7434 </r>
       <r>    -5.3523     8.3751   197.6192 </r>
       <r>    -5.2477    11.7093   198.8438 </r>
       <r>    -5.1431    10.4735   199.9391 </r>
       <r>    -5.0386    11.3281   201.1238 </r>
       <r>    -4.9340    15.2456   202.7182 </r>
       <r>    -4.8294     9.6955   203.7322 </r>
       <r>    -4.7248    18.2114   205.6367 </r>
       <r>    -4.6202     8.8779   206.5652 </r>
       <r>    -4.5156     6.6442   207.2600 </r>
       <r>    -4.4111    10.5423   208.3626 </r>
       <r>    -4.3065    14.5482   209.8840 </r>
       <r>    -4.2019    15.4529   211.5001 </r>
       <r>    -4.0973    29.0725   214.5405 </r>
       <r>    -3.9927    41.7519   218.9069 </r>
       <r>    -3.8882    32.1899   222.2734 </r>
       <r>    -3.7836    16.9773   224.0488 </r>
       <r>    -3.6790    14.2468   225.5388 </r>
       <r>    -3.5744     9.1173   226.4923 </r>
       <r>    -3.4698    19.7106   228.5536 </r>
       <r>    -3.3653    14.1803   230.0366 </r>
       <r>    -3.2607    12.3189   231.3249 </r>
       <r>    -3.1561     7.2336   232.0814 </r>
       <r>    -3.0515     5.5505   232.6619 </r>
       <r>    -2.9469     8.8487   233.5873 </r>
       <r>    -2.8424     8.7944   234.5070 </r>
       <r>    -2.7378     2.3167   234.7493 </r>
       <r>    -2.6332     0.0116   234.7505 </r>
       <r>    -2.5286     4.9058   235.2635 </r>
       <r>    -2.4240    14.4808   236.7779 </r>
       <r>    -2.3195     8.4790   237.6647 </r>
       <r>    -2.2149     1.0798   237.7776 </r>
       <r>    -2.1103     2.1665   238.0042 </r>
       <r>    -2.0057     4.0695   238.4298 </r>
       <r>    -1.9011     4.6672   238.9179 </r>
       <r>    -1.7966     3.5328   239.2873 </r>
       <r>    -1.6920     2.3513   239.5332 </r>
       <r>    -1.5874     2.7286   239.8186 </r>
       <r>    -1.4828     0.5738   239.8786 </r>
       <r>    -1.3782     0.6840   239.9501 </r>
       <r>    -1.2737     0.3893   239.9908 </r>
       <r>    -1.1691     0.0876   240.0000 </r>
       <r>    -1.0645     0.0000   240.0000 </r>
       <r>    -0.9599     0.0000   240.0000 </r>
       <r>    -0.8553     0.0000   240.0000 </r>
       <r>    -0.7508     0.0000   240.0000 </r>
       <r>    -0.6462     0.0000   240.0000 </r>
       <r>    -0.5416     0.0000   240.0000 </r>
       <r>    -0.4370     0.0000   240.0000 </r>
       <r>    -0.3324     0.0000   240.0000 </r>
       <r>    -0.2279     0.0000   240.0000 </r>
       <r>    -0.1233     0.0000   240.0000 </r>
       <r>    -0.0187     0.0000   240.0000 </r>
       <r>     0.0859     0.0000   240.0000 </r>
       <r>     0.1905     0.0000   240.0000 </r>
       <r>     0.2950     0.0000   240.0000 </r>
       <r>     0.3996     0.0000   240.0000 </r>
       <r>     0.5042     0.0445   240.0047 </r>
       <r>     0.6088     1.7367   240.1863 </r>
       <r>     0.7134     4.8758   240.6962 </r>
       <r>     0.8179    27.2648   243.5476 </r>
       <r>     0.9225    25.6961   246.2349 </r>
       <r>     1.0271    31.1157   249.4890 </r>
       <r>     1.1317    26.8142   252.2932 </r>
       <r>     1.2363    24.1203   254.8157 </r>
       <r>     1.3409    15.2394   256.4095 </r>
       <r>     1.4454    24.9070   259.0142 </r>
       <r>     1.5500    30.7847   262.2337 </r>
       <r>     1.6546    12.8659   263.5792 </r>
       <r>     1.7592    10.5159   264.6790 </r>
       <r>     1.8638    19.5560   266.7242 </r>
       <r>     1.9683    30.0381   269.8656 </r>
       <r>     2.0729    14.2547   271.3563 </r>
       <r>     2.1775    21.4918   273.6039 </r>
       <r>     2.2821    17.1056   275.3929 </r>
       <r>     2.3867    30.4394   278.5762 </r>
       <r>     2.4912    36.5414   282.3977 </r>
       <r>     2.5958    27.8718   285.3126 </r>
       <r>     2.7004    26.5262   288.0867 </r>
       <r>     2.8050    15.7470   289.7335 </r>
       <r>     2.9096    21.9817   292.0324 </r>
       <r>     3.0141    26.2648   294.7791 </r>
       <r>     3.1187    41.4158   299.1104 </r>
       <r>     3.2233    33.0441   302.5662 </r>
       <r>     3.3279    12.4451   303.8677 </r>
       <r>     3.4325    26.1087   306.5981 </r>
       <r>     3.5370    16.6561   308.3400 </r>
       <r>     3.6416    24.3836   310.8901 </r>
       <r>     3.7462    13.1393   312.2642 </r>
       <r>     3.8508    27.0926   315.0976 </r>
       <r>     3.9554    36.5934   318.9245 </r>
       <r>     4.0599    39.4637   323.0516 </r>
       <r>     4.1645    15.2230   324.6437 </r>
       <r>     4.2691    31.6223   327.9507 </r>
       <r>     4.3737    33.2379   331.4268 </r>
       <r>     4.4783    22.9065   333.8223 </r>
       <r>     4.5828    20.5118   335.9675 </r>
       <r>     4.6874    37.2489   339.8630 </r>
       <r>     4.7920    21.0407   342.0634 </r>
       <r>     4.8966    16.1592   343.7533 </r>
       <r>     5.0012    16.6142   345.4909 </r>
       <r>     5.1057    14.5433   347.0118 </r>
       <r>     5.2103     8.0622   347.8549 </r>
       <r>     5.3149    42.6503   352.3153 </r>
       <r>     5.4195    41.7462   356.6812 </r>
       <r>     5.5241    47.6481   361.6642 </r>
       <r>     5.6286    49.3674   366.8271 </r>
       <r>     5.7332    26.7739   369.6271 </r>
       <r>     5.8378    25.2564   372.2684 </r>
       <r>     5.9424    25.2198   374.9059 </r>
       <r>     6.0470    15.6433   376.5419 </r>
       <r>     6.1515    28.1952   379.4906 </r>
       <r>     6.2561    26.7589   382.2890 </r>
       <r>     6.3607    10.4632   383.3833 </r>
       <r>     6.4653     4.5379   383.8578 </r>
       <r>     6.5699     1.3535   383.9994 </r>
       <r>     6.6744     0.0058   384.0000 </r>
       <r>     6.7790     0.0000   384.0000 </r>
       <r>     6.8836     0.0315   384.0033 </r>
       <r>     6.9882     0.3426   384.0391 </r>
       <r>     7.0928     0.0332   384.0426 </r>
       <r>     7.1973     0.5880   384.1041 </r>
       <r>     7.3019     0.2429   384.1295 </r>
       <r>     7.4065     0.6837   384.2010 </r>
       <r>     7.5111     0.3254   384.2350 </r>
       <r>     7.6157     0.7568   384.3142 </r>
       <r>     7.7203     0.8845   384.4067 </r>
       <r>     7.8248     2.2549   384.6425 </r>
       <r>     7.9294     5.0216   385.1677 </r>
       <r>     8.0340     3.8968   385.5752 </r>
       <r>     8.1386     4.3911   386.0344 </r>
       <r>     8.2432     7.8878   386.8593 </r>
       <r>     8.3477     8.1440   387.7110 </r>
       <r>     8.4523    11.5262   388.9164 </r>
       <r>     8.5569     5.9599   389.5397 </r>
       <r>     8.6615     8.9073   390.4712 </r>
       <r>     8.7661    10.3456   391.5532 </r>
       <r>     8.8706     6.0163   392.1824 </r>
       <r>     8.9752    29.6127   395.2793 </r>
       <r>     9.0798    24.3911   397.8301 </r>
       <r>     9.1844    23.9121   400.3308 </r>
       <r>     9.2890    18.3584   402.2508 </r>
       <r>     9.3935    23.7647   404.7361 </r>
       <r>     9.4981    26.0685   407.4623 </r>
       <r>     9.6027    20.1412   409.5687 </r>
       <r>     9.7073    19.3355   411.5908 </r>
       <r>     9.8119    25.8406   414.2932 </r>
       <r>     9.9164    29.9820   417.4288 </r>
       <r>    10.0210    25.2889   420.0735 </r>
       <r>    10.1256    20.4970   422.2171 </r>
       <r>    10.2302    27.0954   425.0507 </r>
       <r>    10.3348    24.7782   427.6420 </r>
       <r>    10.4393    31.6600   430.9530 </r>
       <r>    10.5439    22.1122   433.2655 </r>
       <r>    10.6485    24.4177   435.8191 </r>
       <r>    10.7531    18.5601   437.7602 </r>
       <r>    10.8577    16.1573   439.4499 </r>
       <r>    10.9622    15.2190   441.0415 </r>
       <r>    11.0668    19.7511   443.1071 </r>
       <r>    11.1714    20.5628   445.2575 </r>
       <r>    11.2760    26.8878   448.0695 </r>
       <r>    11.3806    36.6779   451.9053 </r>
       <r>    11.4851    34.3340   455.4959 </r>
       <r>    11.5897    32.2425   458.8679 </r>
       <r>    11.6943    31.7909   462.1926 </r>
       <r>    11.7989    12.5288   463.5028 </r>
       <r>    11.9035     2.7076   463.7860 </r>
       <r>    12.0080     2.0169   463.9969 </r>
       <r>    12.1126     0.0294   464.0000 </r>
       <r>    12.2172     0.0000   464.0000 </r>
       <r>    12.3218     0.0000   464.0000 </r>
       <r>    12.4264     0.0000   464.0000 </r>
       <r>    12.5309     0.0000   464.0000 </r>
       <r>    12.6355     0.0000   464.0000 </r>
       <r>    12.7401     0.0000   464.0000 </r>
       <r>    12.8447     0.0000   464.0000 </r>
       <r>    12.9493     0.0000   464.0000 </r>
       <r>    13.0538     0.0000   464.0000 </r>
       <r>    13.1584     0.0000   464.0000 </r>
       <r>    13.2630     0.0000   464.0000 </r>
       <r>    13.3676     0.0000   464.0000 </r>
      </set>
     </set>
    </array>
   </total>
  </dos>
 </calculation>
 <structure name="finalpos" >
  <crystal>
   <varray name="basis" >
    <v>       7.80095825       0.00000000       0.00000000 </v>
    <v>       0.00000000       7.80095825       0.00000000 </v>
    <v>       0.00000000       0.00000000      12.31083830 </v>
   </varray>
   <i name="volume">    749.17544500 </i>
   <varray name="rec_basis" >
    <v>       0.12818938       0.00000000       0.00000000 </v>
    <v>       0.00000000       0.12818938       0.00000000 </v>
    <v>       0.00000000       0.00000000       0.08122924 </v>
   </varray>
  </crystal>
  <varray name="positions" >
   <v>       0.24887766       0.24887766       0.85499725 </v>
   <v>       0.75112234       0.24887766       0.85499725 </v>
   <v>       0.24887766       0.75112234       0.85499725 </v>
   <v>       0.75112234       0.75112234       0.85499725 </v>
   <v>       0.00000000       1.00000000       0.64598810 </v>
   <v>       0.50000000       1.00000000       0.64679780 </v>
   <v>       0.00000000       0.50000000       0.64679780 </v>
   <v>       0.50000000       0.50000000       0.64770461 </v>
   <v>       0.00000000       0.00000000       0.35401190 </v>
   <v>       0.50000000       1.00000000       0.35320220 </v>
   <v>       0.00000000       0.50000000       0.35320220 </v>
   <v>       0.50000000       0.50000000       0.35229539 </v>
   <v>       0.24887766       0.24887766       0.14500275 </v>
   <v>       0.75112234       0.24887766       0.14500275 </v>
   <v>       0.24887766       0.75112234       0.14500275 </v>
   <v>       0.75112234       0.75112234       0.14500275 </v>
   <v>       0.50000000       1.00000000       0.00000000 </v>
   <v>       0.00000000       0.50000000       0.00000000 </v>
   <v>       0.50000000       0.50000000       0.00000000 </v>
   <v>       0.25021203       0.25021203       0.50000000 </v>
   <v>       0.74978797       0.25021203       0.50000000 </v>
   <v>       0.25021203       0.74978797       0.50000000 </v>
   <v>       0.74978797       0.74978797       0.50000000 </v>
   <v>       0.00000000       0.24950718       0.75043661 </v>
   <v>       0.50000000       0.24964208       0.75142711 </v>
   <v>       0.00000000       0.75049282       0.75043661 </v>
   <v>       0.50000000       0.75035792       0.75142711 </v>
   <v>       0.24950718       0.00000000       0.75043661 </v>
   <v>       0.75049282       0.00000000       0.75043661 </v>
   <v>       0.24964208       0.50000000       0.75142711 </v>
   <v>       0.75035792       0.50000000       0.75142711 </v>
   <v>       0.24950718       0.00000000       0.24956339 </v>
   <v>       0.75049282       1.00000000       0.24956339 </v>
   <v>       0.24964208       0.50000000       0.24857289 </v>
   <v>       0.75035792       0.50000000       0.24857289 </v>
   <v>       0.00000000       0.24950718       0.24956339 </v>
   <v>       0.50000000       0.24964208       0.24857289 </v>
   <v>       0.00000000       0.75049282       0.24956339 </v>
   <v>       0.50000000       0.75035792       0.24857289 </v>
   <v>       0.00000000       1.00000000       0.00000000 </v>
  </varray>
 </structure>
</modeling>
