unknown system                          
           1
     7.800958    0.000000    0.000000
     0.000000    7.800958    0.000000
     0.000000    0.000000   12.310838
   Bi   Se   O    S 
    16     7    16     1
Direct configuration=     1
   0.24887750  0.24887750  0.85499731
   0.75112250  0.24887750  0.85499731
   0.24887750  0.75112250  0.85499731
   0.75112250  0.75112250  0.85499731
   0.00000000  0.00000000  0.64598766
   0.50000000  0.00000000  0.64679774
   0.00000000  0.50000000  0.64679774
   0.50000000  0.50000000  0.64770494
   0.00000000  0.00000000  0.35401234
   0.50000000  0.00000000  0.35320226
   0.00000000  0.50000000  0.35320226
   0.50000000  0.50000000  0.35229506
   0.24887750  0.24887750  0.14500269
   0.75112250  0.24887750  0.14500269
   0.24887750  0.75112250  0.14500269
   0.75112250  0.75112250  0.14500269
   0.50000000  0.00000000  0.00000000
   0.00000000  0.50000000  0.00000000
   0.50000000  0.50000000  0.00000000
   0.25021125  0.25021125  0.50000000
   0.74978875  0.25021125  0.50000000
   0.25021125  0.74978875  0.50000000
   0.74978875  0.74978875  0.50000000
   0.00000000  0.24950732  0.75043654
   0.50000000  0.24964221  0.75142718
   0.00000000  0.75049268  0.75043654
   0.50000000  0.75035779  0.75142718
   0.24950732  0.00000000  0.75043654
   0.75049268  0.00000000  0.75043654
   0.24964221  0.50000000  0.75142718
   0.75035779  0.50000000  0.75142718
   0.24950732  0.00000000  0.24956346
   0.75049268  0.00000000  0.24956346
   0.24964221  0.50000000  0.24857282
   0.75035779  0.50000000  0.24857282
   0.00000000  0.24950732  0.24956346
   0.50000000  0.24964221  0.24857282
   0.00000000  0.75049268  0.24956346
   0.50000000  0.75035779  0.24857282
   0.00000000  0.00000000  0.00000000
Direct configuration=     2
   0.24887754  0.24887754  0.85499731
   0.75112246  0.24887754  0.85499731
   0.24887754  0.75112246  0.85499731
   0.75112246  0.75112246  0.85499731
   1.00000000  0.00000000  0.64598777
   0.50000000  1.00000000  0.64679774
   1.00000000  0.50000000  0.64679774
   0.50000000  0.50000000  0.64770481
   1.00000000  1.00000000  0.35401223
   0.50000000  1.00000000  0.35320226
   1.00000000  0.50000000  0.35320226
   0.50000000  0.50000000  0.35229519
   0.24887754  0.24887754  0.14500269
   0.75112246  0.24887754  0.14500269
   0.24887754  0.75112246  0.14500269
   0.75112246  0.75112246  0.14500269
   0.50000000  0.00000000  1.00000000
   1.00000000  0.50000000  1.00000000
   0.50000000  0.50000000  1.00000000
   0.25021137  0.25021137  0.50000000
   0.74978863  0.25021137  0.50000000
   0.25021137  0.74978863  0.50000000
   0.74978863  0.74978863  0.50000000
   1.00000000  0.24950729  0.75043656
   0.50000000  0.24964218  0.75142717
   1.00000000  0.75049271  0.75043656
   0.50000000  0.75035782  0.75142717
   0.24950729  0.00000000  0.75043656
   0.75049271  1.00000000  0.75043656
   0.24964218  0.50000000  0.75142717
   0.75035782  0.50000000  0.75142717
   0.24950729  0.00000000  0.24956344
   0.75049271  0.00000000  0.24956344
   0.24964218  0.50000000  0.24857283
   0.75035782  0.50000000  0.24857283
   1.00000000  0.24950729  0.24956344
   0.50000000  0.24964218  0.24857283
   1.00000000  0.75049271  0.24956344
   0.50000000  0.75035782  0.24857283
   1.00000000  0.00000000  1.00000000
Direct configuration=     3
   0.24887754  0.24887754  0.85499731
   0.75112246  0.24887754  0.85499731
   0.24887754  0.75112246  0.85499731
   0.75112246  0.75112246  0.85499731
   0.00000000  0.00000000  0.64598778
   0.50000000  0.00000000  0.64679774
   0.00000000  0.50000000  0.64679774
   0.50000000  0.50000000  0.64770480
   0.00000000  0.00000000  0.35401222
   0.50000000  0.00000000  0.35320226
   0.00000000  0.50000000  0.35320226
   0.50000000  0.50000000  0.35229520
   0.24887754  0.24887754  0.14500269
   0.75112246  0.24887754  0.14500269
   0.24887754  0.75112246  0.14500269
   0.75112246  0.75112246  0.14500269
   0.50000000  0.00000000  0.00000000
   0.00000000  0.50000000  0.00000000
   0.50000000  0.50000000  0.00000000
   0.25021139  0.25021139  0.50000000
   0.74978861  0.25021139  0.50000000
   0.25021139  0.74978861  0.50000000
   0.74978861  0.74978861  0.50000000
   0.00000000  0.24950728  0.75043656
   0.50000000  0.24964218  0.75142717
   0.00000000  0.75049272  0.75043656
   0.50000000  0.75035782  0.75142717
   0.24950728  0.00000000  0.75043656
   0.75049272  0.00000000  0.75043656
   0.24964218  0.50000000  0.75142717
   0.75035782  0.50000000  0.75142717
   0.24950728  0.00000000  0.24956344
   0.75049272  0.00000000  0.24956344
   0.24964218  0.50000000  0.24857283
   0.75035782  0.50000000  0.24857283
   0.00000000  0.24950728  0.24956344
   0.50000000  0.24964218  0.24857283
   0.00000000  0.75049272  0.24956344
   0.50000000  0.75035782  0.24857283
   0.00000000  0.00000000  0.00000000
Direct configuration=     4
   0.24887755  0.24887755  0.85499731
   0.75112245  0.24887755  0.85499731
   0.24887755  0.75112245  0.85499731
   0.75112245  0.75112245  0.85499731
   1.00000000  0.00000000  0.64598781
   0.50000000  1.00000000  0.64679774
   1.00000000  0.50000000  0.64679774
   0.50000000  0.50000000  0.64770478
   1.00000000  1.00000000  0.35401219
   0.50000000  1.00000000  0.35320226
   1.00000000  0.50000000  0.35320226
   0.50000000  0.50000000  0.35229522
   0.24887755  0.24887755  0.14500269
   0.75112245  0.24887755  0.14500269
   0.24887755  0.75112245  0.14500269
   0.75112245  0.75112245  0.14500269
   0.50000000  0.00000000  1.00000000
   1.00000000  0.50000000  1.00000000
   0.50000000  0.50000000  1.00000000
   0.25021141  0.25021141  0.50000000
   0.74978859  0.25021141  0.50000000
   0.25021141  0.74978859  0.50000000
   0.74978859  0.74978859  0.50000000
   1.00000000  0.24950728  0.75043657
   0.50000000  0.24964217  0.75142717
   1.00000000  0.75049272  0.75043657
   0.50000000  0.75035783  0.75142717
   0.24950728  0.00000000  0.75043657
   0.75049272  1.00000000  0.75043657
   0.24964217  0.50000000  0.75142717
   0.75035783  0.50000000  0.75142717
   0.24950728  0.00000000  0.24956343
   0.75049272  0.00000000  0.24956343
   0.24964217  0.50000000  0.24857283
   0.75035783  0.50000000  0.24857283
   1.00000000  0.24950728  0.24956343
   0.50000000  0.24964217  0.24857283
   1.00000000  0.75049272  0.24956343
   0.50000000  0.75035783  0.24857283
   1.00000000  0.00000000  1.00000000
Direct configuration=     5
   0.24887756  0.24887756  0.85499731
   0.75112244  0.24887756  0.85499731
   0.24887756  0.75112244  0.85499731
   0.75112244  0.75112244  0.85499731
   0.00000000  0.00000000  0.64598785
   0.50000000  0.00000000  0.64679774
   0.00000000  0.50000000  0.64679774
   0.50000000  0.50000000  0.64770473
   0.00000000  0.00000000  0.35401215
   0.50000000  0.00000000  0.35320226
   0.00000000  0.50000000  0.35320226
   0.50000000  0.50000000  0.35229527
   0.24887756  0.24887756  0.14500269
   0.75112244  0.24887756  0.14500269
   0.24887756  0.75112244  0.14500269
   0.75112244  0.75112244  0.14500269
   0.50000000  0.00000000  0.00000000
   0.00000000  0.50000000  0.00000000
   0.50000000  0.50000000  0.00000000
   0.25021146  0.25021146  0.50000000
   0.74978854  0.25021146  0.50000000
   0.25021146  0.74978854  0.50000000
   0.74978854  0.74978854  0.50000000
   0.00000000  0.24950727  0.75043657
   0.50000000  0.24964216  0.75142716
   0.00000000  0.75049273  0.75043657
   0.50000000  0.75035784  0.75142716
   0.24950727  0.00000000  0.75043657
   0.75049273  0.00000000  0.75043657
   0.24964216  0.50000000  0.75142716
   0.75035784  0.50000000  0.75142716
   0.24950727  0.00000000  0.24956343
   0.75049273  0.00000000  0.24956343
   0.24964216  0.50000000  0.24857284
   0.75035784  0.50000000  0.24857284
   0.00000000  0.24950727  0.24956343
   0.50000000  0.24964216  0.24857284
   0.00000000  0.75049273  0.24956343
   0.50000000  0.75035784  0.24857284
   0.00000000  0.00000000  0.00000000
Direct configuration=     6
   0.24887759  0.24887759  0.85499730
   0.75112241  0.24887759  0.85499730
   0.24887759  0.75112241  0.85499730
   0.75112241  0.75112241  0.85499730
   1.00000000  0.00000000  0.64598793
   0.50000000  1.00000000  0.64679774
   1.00000000  0.50000000  0.64679774
   0.50000000  0.50000000  0.64770464
   1.00000000  1.00000000  0.35401207
   0.50000000  1.00000000  0.35320226
   1.00000000  0.50000000  0.35320226
   0.50000000  0.50000000  0.35229536
   0.24887759  0.24887759  0.14500270
   0.75112241  0.24887759  0.14500270
   0.24887759  0.75112241  0.14500270
   0.75112241  0.75112241  0.14500270
   0.50000000  0.00000000  1.00000000
   1.00000000  0.50000000  1.00000000
   0.50000000  0.50000000  1.00000000
   0.25021156  0.25021156  0.50000000
   0.74978844  0.25021156  0.50000000
   0.25021156  0.74978844  0.50000000
   0.74978844  0.74978844  0.50000000
   1.00000000  0.24950724  0.75043658
   0.50000000  0.24964214  0.75142715
   1.00000000  0.75049276  0.75043658
   0.50000000  0.75035786  0.75142715
   0.24950724  0.00000000  0.75043658
   0.75049276  1.00000000  0.75043658
   0.24964214  0.50000000  0.75142715
   0.75035786  0.50000000  0.75142715
   0.24950724  0.00000000  0.24956342
   0.75049276  0.00000000  0.24956342
   0.24964214  0.50000000  0.24857285
   0.75035786  0.50000000  0.24857285
   1.00000000  0.24950724  0.24956342
   0.50000000  0.24964214  0.24857285
   1.00000000  0.75049276  0.24956342
   0.50000000  0.75035786  0.24857285
   1.00000000  0.00000000  1.00000000
Direct configuration=     7
   0.24887762  0.24887762  0.85499727
   0.75112238  0.24887762  0.85499727
   0.24887762  0.75112238  0.85499727
   0.75112238  0.75112238  0.85499727
   0.00000000  0.00000000  0.64598802
   0.50000000  0.00000000  0.64679778
   0.00000000  0.50000000  0.64679778
   0.50000000  0.50000000  0.64770464
   0.00000000  0.00000000  0.35401198
   0.50000000  0.00000000  0.35320222
   0.00000000  0.50000000  0.35320222
   0.50000000  0.50000000  0.35229536
   0.24887762  0.24887762  0.14500273
   0.75112238  0.24887762  0.14500273
   0.24887762  0.75112238  0.14500273
   0.75112238  0.75112238  0.14500273
   0.50000000  0.00000000  0.00000000
   0.00000000  0.50000000  0.00000000
   0.50000000  0.50000000  0.00000000
   0.25021167  0.25021167  0.50000000
   0.74978833  0.25021167  0.50000000
   0.25021167  0.74978833  0.50000000
   0.74978833  0.74978833  0.50000000
   0.00000000  0.24950722  0.75043660
   0.50000000  0.24964212  0.75142714
   0.00000000  0.75049278  0.75043660
   0.50000000  0.75035788  0.75142714
   0.24950722  0.00000000  0.75043660
   0.75049278  0.00000000  0.75043660
   0.24964212  0.50000000  0.75142714
   0.75035788  0.50000000  0.75142714
   0.24950722  0.00000000  0.24956340
   0.75049278  0.00000000  0.24956340
   0.24964212  0.50000000  0.24857286
   0.75035788  0.50000000  0.24857286
   0.00000000  0.24950722  0.24956340
   0.50000000  0.24964212  0.24857286
   0.00000000  0.75049278  0.24956340
   0.50000000  0.75035788  0.24857286
   0.00000000  0.00000000  0.00000000
Direct configuration=     8
   0.24887764  0.24887764  0.85499725
   0.75112236  0.24887764  0.85499725
   0.24887764  0.75112236  0.85499725
   0.75112236  0.75112236  0.85499725
   1.00000000  0.00000000  0.64598807
   0.50000000  0.00000000  0.64679780
   1.00000000  0.50000000  0.64679780
   0.50000000  0.50000000  0.64770464
   1.00000000  1.00000000  0.35401193
   0.50000000  0.00000000  0.35320220
   1.00000000  0.50000000  0.35320220
   0.50000000  0.50000000  0.35229536
   0.24887764  0.24887764  0.14500275
   0.75112236  0.24887764  0.14500275
   0.24887764  0.75112236  0.14500275
   0.75112236  0.75112236  0.14500275
   0.50000000  0.00000000  1.00000000
   1.00000000  0.50000000  1.00000000
   0.50000000  0.50000000  1.00000000
   0.25021174  0.25021174  0.50000000
   0.74978826  0.25021174  0.50000000
   0.25021174  0.74978826  0.50000000
   0.74978826  0.74978826  0.50000000
   1.00000000  0.24950721  0.75043660
   0.50000000  0.24964211  0.75142713
   1.00000000  0.75049279  0.75043660
   0.50000000  0.75035789  0.75142713
   0.24950721  0.00000000  0.75043660
   0.75049279  1.00000000  0.75043660
   0.24964211  0.50000000  0.75142713
   0.75035789  0.50000000  0.75142713
   0.24950721  0.00000000  0.24956340
   0.75049279  0.00000000  0.24956340
   0.24964211  0.50000000  0.24857287
   0.75035789  0.50000000  0.24857287
   1.00000000  0.24950721  0.24956340
   0.50000000  0.24964211  0.24857287
   1.00000000  0.75049279  0.24956340
   0.50000000  0.75035789  0.24857287
   1.00000000  0.00000000  1.00000000
Direct configuration=     9
   0.24887764  0.24887764  0.85499725
   0.75112236  0.24887764  0.85499725
   0.24887764  0.75112236  0.85499725
   0.75112236  0.75112236  0.85499725
   0.00000000  0.00000000  0.64598807
   0.50000000  0.00000000  0.64679780
   0.00000000  0.50000000  0.64679780
   0.50000000  0.50000000  0.64770464
   0.00000000  0.00000000  0.35401193
   0.50000000  0.00000000  0.35320220
   0.00000000  0.50000000  0.35320220
   0.50000000  0.50000000  0.35229536
   0.24887764  0.24887764  0.14500275
   0.75112236  0.24887764  0.14500275
   0.24887764  0.75112236  0.14500275
   0.75112236  0.75112236  0.14500275
   0.50000000  0.00000000  0.00000000
   0.00000000  0.50000000  0.00000000
   0.50000000  0.50000000  0.00000000
   0.25021180  0.25021180  0.50000000
   0.74978820  0.25021180  0.50000000
   0.25021180  0.74978820  0.50000000
   0.74978820  0.74978820  0.50000000
   0.00000000  0.24950720  0.75043660
   0.50000000  0.24964210  0.75142712
   0.00000000  0.75049280  0.75043660
   0.50000000  0.75035790  0.75142712
   0.24950720  0.00000000  0.75043660
   0.75049280  0.00000000  0.75043660
   0.24964210  0.50000000  0.75142712
   0.75035790  0.50000000  0.75142712
   0.24950720  0.00000000  0.24956340
   0.75049280  0.00000000  0.24956340
   0.24964210  0.50000000  0.24857288
   0.75035790  0.50000000  0.24857288
   0.00000000  0.24950720  0.24956340
   0.50000000  0.24964210  0.24857288
   0.00000000  0.75049280  0.24956340
   0.50000000  0.75035790  0.24857288
   0.00000000  1.00000000  0.00000000
Direct configuration=    10
   0.24887766  0.24887766  0.85499725
   0.75112234  0.24887766  0.85499725
   0.24887766  0.75112234  0.85499725
   0.75112234  0.75112234  0.85499725
   1.00000000  0.00000000  0.64598809
   0.50000000  0.00000000  0.64679779
   1.00000000  0.50000000  0.64679779
   0.50000000  0.50000000  0.64770461
   1.00000000  1.00000000  0.35401191
   0.50000000  0.00000000  0.35320221
   1.00000000  0.50000000  0.35320221
   0.50000000  0.50000000  0.35229539
   0.24887766  0.24887766  0.14500275
   0.75112234  0.24887766  0.14500275
   0.24887766  0.75112234  0.14500275
   0.75112234  0.75112234  0.14500275
   0.50000000  0.00000000  1.00000000
   1.00000000  0.50000000  1.00000000
   0.50000000  0.50000000  1.00000000
   0.25021198  0.25021198  0.50000000
   0.74978802  0.25021198  0.50000000
   0.25021198  0.74978802  0.50000000
   0.74978802  0.74978802  0.50000000
   1.00000000  0.24950718  0.75043661
   0.50000000  0.24964208  0.75142711
   1.00000000  0.75049282  0.75043661
   0.50000000  0.75035792  0.75142711
   0.24950718  1.00000000  0.75043661
   0.75049282  1.00000000  0.75043661
   0.24964208  0.50000000  0.75142711
   0.75035792  0.50000000  0.75142711
   0.24950718  1.00000000  0.24956339
   0.75049282  0.00000000  0.24956339
   0.24964208  0.50000000  0.24857289
   0.75035792  0.50000000  0.24857289
   1.00000000  0.24950718  0.24956339
   0.50000000  0.24964208  0.24857289
   1.00000000  0.75049282  0.24956339
   0.50000000  0.75035792  0.24857289
   1.00000000  0.00000000  1.00000000
Direct configuration=    11
   0.24887766  0.24887766  0.85499725
   0.75112234  0.24887766  0.85499725
   0.24887766  0.75112234  0.85499725
   0.75112234  0.75112234  0.85499725
   0.00000000  1.00000000  0.64598810
   0.50000000  1.00000000  0.64679780
   0.00000000  0.50000000  0.64679780
   0.50000000  0.50000000  0.64770461
   0.00000000  0.00000000  0.35401190
   0.50000000  1.00000000  0.35320220
   0.00000000  0.50000000  0.35320220
   0.50000000  0.50000000  0.35229539
   0.24887766  0.24887766  0.14500275
   0.75112234  0.24887766  0.14500275
   0.24887766  0.75112234  0.14500275
   0.75112234  0.75112234  0.14500275
   0.50000000  1.00000000  0.00000000
   0.00000000  0.50000000  0.00000000
   0.50000000  0.50000000  0.00000000
   0.25021203  0.25021203  0.50000000
   0.74978797  0.25021203  0.50000000
   0.25021203  0.74978797  0.50000000
   0.74978797  0.74978797  0.50000000
   0.00000000  0.24950718  0.75043661
   0.50000000  0.24964208  0.75142711
   0.00000000  0.75049282  0.75043661
   0.50000000  0.75035792  0.75142711
   0.24950718  0.00000000  0.75043661
   0.75049282  0.00000000  0.75043661
   0.24964208  0.50000000  0.75142711
   0.75035792  0.50000000  0.75142711
   0.24950718  0.00000000  0.24956339
   0.75049282  1.00000000  0.24956339
   0.24964208  0.50000000  0.24857289
   0.75035792  0.50000000  0.24857289
   0.00000000  0.24950718  0.24956339
   0.50000000  0.24964208  0.24857289
   0.00000000  0.75049282  0.24956339
   0.50000000  0.75035792  0.24857289
   0.00000000  1.00000000  0.00000000
