  40  40   0   0
  0.1958928E+02  0.7918561E-09  0.7918561E-09  0.1249643E-08  0.5000000E-15
  1.000000000000000E-004
  CAR 
 unknown system                          
     12.50282409    -18.53632231  301      6.20538950      1.00000000
    -18.536  0.0000E+00  0.0000E+00
    -18.433  0.0000E+00  0.0000E+00
    -18.329  0.0000E+00  0.0000E+00
    -18.226  0.0000E+00  0.0000E+00
    -18.122  0.0000E+00  0.0000E+00
    -18.019  0.0000E+00  0.0000E+00
    -17.916  0.0000E+00  0.0000E+00
    -17.812  0.0000E+00  0.0000E+00
    -17.709  0.0000E+00  0.0000E+00
    -17.605  0.0000E+00  0.0000E+00
    -17.502  0.0000E+00  0.0000E+00
    -17.398  0.6248E-15  0.6465E-16
    -17.295  0.1708E-06  0.1767E-07
    -17.191  0.1598E-01  0.1654E-02
    -17.088  0.1313E+01  0.1375E+00
    -16.984  0.2935E+01  0.4412E+00
    -16.881  0.9785E+01  0.1454E+01
    -16.777  0.1414E+01  0.1600E+01
    -16.674  0.6842E-03  0.1600E+01
    -16.571  0.1487E-09  0.1600E+01
    -16.467  0.0000E+00  0.1600E+01
    -16.364  0.0000E+00  0.1600E+01
    -16.260  0.0000E+00  0.1600E+01
    -16.157  0.0000E+00  0.1600E+01
    -16.053  0.0000E+00  0.1600E+01
    -15.950  0.0000E+00  0.1600E+01
    -15.846  0.0000E+00  0.1600E+01
    -15.743  0.0000E+00  0.1600E+01
    -15.639  0.0000E+00  0.1600E+01
    -15.536  0.0000E+00  0.1600E+01
    -15.432  0.0000E+00  0.1600E+01
    -15.329  0.0000E+00  0.1600E+01
    -15.225  0.0000E+00  0.1600E+01
    -15.122  0.0000E+00  0.1600E+01
    -15.019  0.0000E+00  0.1600E+01
    -14.915  0.0000E+00  0.1600E+01
    -14.812  0.0000E+00  0.1600E+01
    -14.708  0.0000E+00  0.1600E+01
    -14.605  0.0000E+00  0.1600E+01
    -14.501  0.0000E+00  0.1600E+01
    -14.398  0.0000E+00  0.1600E+01
    -14.294  0.0000E+00  0.1600E+01
    -14.191  0.0000E+00  0.1600E+01
    -14.087  0.0000E+00  0.1600E+01
    -13.984  0.0000E+00  0.1600E+01
    -13.880  0.0000E+00  0.1600E+01
    -13.777  0.0000E+00  0.1600E+01
    -13.674  0.0000E+00  0.1600E+01
    -13.570  0.0000E+00  0.1600E+01
    -13.467  0.5965E-11  0.1600E+01
    -13.363  0.1097E-04  0.1600E+01
    -13.260  0.8252E-02  0.1601E+01
    -13.156  0.5613E-01  0.1607E+01
    -13.053  0.1078E+00  0.1618E+01
    -12.949  0.4744E-01  0.1623E+01
    -12.846  0.9057E-01  0.1632E+01
    -12.742  0.1822E+00  0.1651E+01
    -12.639  0.1713E-01  0.1653E+01
    -12.535  0.7753E-01  0.1661E+01
    -12.432  0.1576E+00  0.1677E+01
    -12.328  0.1483E+00  0.1692E+01
    -12.225  0.1149E+00  0.1704E+01
    -12.122  0.7947E-01  0.1713E+01
    -12.018  0.9961E-01  0.1723E+01
    -11.915  0.3082E+00  0.1755E+01
    -11.811  0.1887E+00  0.1774E+01
    -11.708  0.2024E+00  0.1795E+01
    -11.604  0.2134E+00  0.1817E+01
    -11.501  0.3824E+00  0.1857E+01
    -11.397  0.3724E-01  0.1861E+01
    -11.294  0.1626E+00  0.1877E+01
    -11.190  0.1929E+00  0.1897E+01
    -11.087  0.1106E+00  0.1909E+01
    -10.983  0.1009E+00  0.1919E+01
    -10.880  0.6640E-02  0.1920E+01
    -10.777  0.3554E-05  0.1920E+01
    -10.673  0.7088E-12  0.1920E+01
    -10.570  0.0000E+00  0.1920E+01
    -10.466  0.0000E+00  0.1920E+01
    -10.363  0.0000E+00  0.1920E+01
    -10.259  0.0000E+00  0.1920E+01
    -10.156  0.0000E+00  0.1920E+01
    -10.052  0.0000E+00  0.1920E+01
     -9.949  0.0000E+00  0.1920E+01
     -9.845  0.0000E+00  0.1920E+01
     -9.742  0.0000E+00  0.1920E+01
     -9.638  0.0000E+00  0.1920E+01
     -9.535  0.0000E+00  0.1920E+01
     -9.432  0.0000E+00  0.1920E+01
     -9.328  0.0000E+00  0.1920E+01
     -9.225  0.0000E+00  0.1920E+01
     -9.121  0.0000E+00  0.1920E+01
     -9.018  0.0000E+00  0.1920E+01
     -8.914  0.0000E+00  0.1920E+01
     -8.811  0.0000E+00  0.1920E+01
     -8.707  0.0000E+00  0.1920E+01
     -8.604  0.0000E+00  0.1920E+01
     -8.500  0.0000E+00  0.1920E+01
     -8.397  0.0000E+00  0.1920E+01
     -8.293  0.0000E+00  0.1920E+01
     -8.190  0.0000E+00  0.1920E+01
     -8.086  0.0000E+00  0.1920E+01
     -7.983  0.0000E+00  0.1920E+01
     -7.880  0.0000E+00  0.1920E+01
     -7.776  0.0000E+00  0.1920E+01
     -7.673  0.0000E+00  0.1920E+01
     -7.569  0.0000E+00  0.1920E+01
     -7.466  0.0000E+00  0.1920E+01
     -7.362  0.0000E+00  0.1920E+01
     -7.259  0.0000E+00  0.1920E+01
     -7.155  0.0000E+00  0.1920E+01
     -7.052  0.0000E+00  0.1920E+01
     -6.948  0.0000E+00  0.1920E+01
     -6.845  0.0000E+00  0.1920E+01
     -6.741  0.2651E-12  0.1920E+01
     -6.638  0.9408E-06  0.1920E+01
     -6.535  0.1148E-02  0.1920E+01
     -6.431  0.1032E-01  0.1921E+01
     -6.328  0.3475E-01  0.1925E+01
     -6.224  0.4640E-01  0.1930E+01
     -6.121  0.3381E-01  0.1933E+01
     -6.017  0.8814E-01  0.1942E+01
     -5.914  0.1128E+00  0.1954E+01
     -5.810  0.6147E-01  0.1960E+01
     -5.707  0.1025E+00  0.1971E+01
     -5.603  0.9801E-01  0.1981E+01
     -5.500  0.1308E+00  0.1995E+01
     -5.396  0.1228E+00  0.2007E+01
     -5.293  0.1639E+00  0.2024E+01
     -5.189  0.1186E+00  0.2036E+01
     -5.086  0.1893E+00  0.2056E+01
     -4.983  0.1190E+00  0.2068E+01
     -4.879  0.8173E-01  0.2077E+01
     -4.776  0.1685E+00  0.2094E+01
     -4.672  0.1759E+00  0.2112E+01
     -4.569  0.3584E+00  0.2150E+01
     -4.465  0.3244E+00  0.2183E+01
     -4.362  0.4003E+00  0.2224E+01
     -4.258  0.2246E+00  0.2248E+01
     -4.155  0.8658E-01  0.2257E+01
     -4.051  0.1583E+00  0.2273E+01
     -3.948  0.1928E+00  0.2293E+01
     -3.844  0.1332E+00  0.2307E+01
     -3.741  0.9428E-01  0.2317E+01
     -3.638  0.7622E-01  0.2324E+01
     -3.534  0.8647E-01  0.2333E+01
     -3.431  0.1099E+00  0.2345E+01
     -3.327  0.2674E-01  0.2347E+01
     -3.224  0.7184E-04  0.2348E+01
     -3.120  0.3384E-01  0.2351E+01
     -3.017  0.1587E+00  0.2367E+01
     -2.913  0.8246E-01  0.2376E+01
     -2.810  0.1857E-01  0.2378E+01
     -2.706  0.2503E-01  0.2380E+01
     -2.603  0.3878E-01  0.2384E+01
     -2.499  0.6039E-01  0.2391E+01
     -2.396  0.2435E-01  0.2393E+01
     -2.293  0.3493E-01  0.2397E+01
     -2.189  0.1770E-01  0.2399E+01
     -2.086  0.5373E-02  0.2399E+01
     -1.982  0.5485E-02  0.2400E+01
     -1.879  0.1766E-02  0.2400E+01
     -1.775  0.4134E-05  0.2400E+01
     -1.672  0.3763E-11  0.2400E+01
     -1.568  0.0000E+00  0.2400E+01
     -1.465  0.0000E+00  0.2400E+01
     -1.361  0.0000E+00  0.2400E+01
     -1.258  0.0000E+00  0.2400E+01
     -1.154  0.0000E+00  0.2400E+01
     -1.051  0.0000E+00  0.2400E+01
     -0.947  0.0000E+00  0.2400E+01
     -0.844  0.0000E+00  0.2400E+01
     -0.741  0.0000E+00  0.2400E+01
     -0.637  0.0000E+00  0.2400E+01
     -0.534  0.0000E+00  0.2400E+01
     -0.430  0.0000E+00  0.2400E+01
     -0.327  0.0000E+00  0.2400E+01
     -0.223  0.0000E+00  0.2400E+01
     -0.120  0.0000E+00  0.2400E+01
     -0.016  0.2982E-12  0.2400E+01
      0.087  0.1515E-05  0.2400E+01
      0.191  0.3174E-02  0.2400E+01
      0.294  0.3384E-01  0.2404E+01
      0.398  0.9672E-01  0.2414E+01
      0.501  0.3185E+00  0.2447E+01
      0.604  0.2861E+00  0.2476E+01
      0.708  0.3752E+00  0.2515E+01
      0.811  0.2500E+00  0.2541E+01
      0.915  0.1504E+00  0.2557E+01
      1.018  0.1648E+00  0.2574E+01
      1.122  0.3680E+00  0.2612E+01
      1.225  0.1565E+00  0.2628E+01
      1.329  0.1315E+00  0.2642E+01
      1.432  0.1482E+00  0.2657E+01
      1.536  0.3856E+00  0.2697E+01
      1.639  0.8603E-01  0.2706E+01
      1.743  0.1473E+00  0.2721E+01
      1.846  0.1912E+00  0.2741E+01
      1.950  0.3245E+00  0.2774E+01
      2.053  0.3202E+00  0.2807E+01
      2.156  0.3141E+00  0.2840E+01
      2.260  0.2439E+00  0.2865E+01
      2.363  0.2460E+00  0.2891E+01
      2.467  0.2772E+00  0.2919E+01
      2.570  0.3657E+00  0.2957E+01
      2.674  0.3355E+00  0.2992E+01
      2.777  0.2812E+00  0.3021E+01
      2.881  0.1954E+00  0.3041E+01
      2.984  0.2703E+00  0.3069E+01
      3.088  0.2210E+00  0.3092E+01
      3.191  0.1235E+00  0.3105E+01
      3.295  0.1950E+00  0.3125E+01
      3.398  0.3477E+00  0.3161E+01
      3.501  0.5309E+00  0.3216E+01
      3.605  0.2165E+00  0.3238E+01
      3.708  0.2497E+00  0.3264E+01
      3.812  0.2665E+00  0.3292E+01
      3.915  0.3429E+00  0.3327E+01
      4.019  0.1464E+00  0.3342E+01
      4.122  0.2229E+00  0.3365E+01
      4.226  0.2871E+00  0.3395E+01
      4.329  0.1408E+00  0.3410E+01
      4.433  0.1456E+00  0.3425E+01
      4.536  0.1611E+00  0.3441E+01
      4.640  0.1605E+00  0.3458E+01
      4.743  0.1430E+00  0.3473E+01
      4.847  0.1835E+00  0.3492E+01
      4.950  0.5505E+00  0.3549E+01
      5.053  0.4907E+00  0.3599E+01
      5.157  0.6034E+00  0.3662E+01
      5.260  0.3081E+00  0.3694E+01
      5.364  0.2952E+00  0.3724E+01
      5.467  0.1997E+00  0.3745E+01
      5.571  0.2908E+00  0.3775E+01
      5.674  0.2633E+00  0.3802E+01
      5.778  0.2011E+00  0.3823E+01
      5.881  0.6798E-01  0.3830E+01
      5.985  0.6064E-01  0.3836E+01
      6.088  0.3171E-01  0.3840E+01
      6.192  0.3414E-02  0.3840E+01
      6.295  0.2957E-03  0.3840E+01
      6.398  0.3450E-02  0.3840E+01
      6.502  0.9563E-03  0.3840E+01
      6.605  0.6888E-02  0.3841E+01
      6.709  0.4930E-03  0.3841E+01
      6.812  0.2379E-02  0.3841E+01
      6.916  0.1480E-01  0.3843E+01
      7.019  0.2947E-02  0.3843E+01
      7.123  0.5122E-02  0.3844E+01
      7.226  0.2246E-01  0.3846E+01
      7.330  0.4367E-01  0.3851E+01
      7.433  0.3611E-01  0.3854E+01
      7.537  0.6541E-01  0.3861E+01
      7.640  0.5966E-01  0.3867E+01
      7.743  0.9499E-01  0.3877E+01
      7.847  0.1001E+00  0.3888E+01
      7.950  0.9497E-01  0.3897E+01
      8.054  0.8256E-01  0.3906E+01
      8.157  0.8725E-01  0.3915E+01
      8.261  0.8392E-01  0.3924E+01
      8.364  0.3049E+00  0.3955E+01
      8.468  0.2693E+00  0.3983E+01
      8.571  0.2465E+00  0.4009E+01
      8.675  0.1599E+00  0.4025E+01
      8.778  0.3480E+00  0.4061E+01
      8.882  0.1821E+00  0.4080E+01
      8.985  0.2039E+00  0.4101E+01
      9.089  0.2213E+00  0.4124E+01
      9.192  0.2256E+00  0.4147E+01
      9.295  0.2945E+00  0.4178E+01
      9.399  0.2603E+00  0.4205E+01
      9.502  0.2166E+00  0.4227E+01
      9.606  0.3211E+00  0.4260E+01
      9.709  0.3241E+00  0.4294E+01
      9.813  0.2874E+00  0.4324E+01
      9.916  0.2307E+00  0.4347E+01
     10.020  0.2259E+00  0.4371E+01
     10.123  0.2252E+00  0.4394E+01
     10.227  0.1838E+00  0.4413E+01
     10.330  0.1703E+00  0.4431E+01
     10.434  0.2273E+00  0.4454E+01
     10.537  0.1758E+00  0.4472E+01
     10.640  0.4025E+00  0.4514E+01
     10.744  0.3996E+00  0.4555E+01
     10.847  0.4236E+00  0.4599E+01
     10.951  0.2615E+00  0.4626E+01
     11.054  0.9667E-01  0.4636E+01
     11.158  0.3503E-01  0.4640E+01
     11.261  0.3865E-03  0.4640E+01
     11.365  0.7415E-08  0.4640E+01
     11.468  0.4829E-16  0.4640E+01
     11.572  0.0000E+00  0.4640E+01
     11.675  0.0000E+00  0.4640E+01
     11.779  0.0000E+00  0.4640E+01
     11.882  0.0000E+00  0.4640E+01
     11.986  0.0000E+00  0.4640E+01
     12.089  0.0000E+00  0.4640E+01
     12.192  0.0000E+00  0.4640E+01
     12.296  0.0000E+00  0.4640E+01
     12.399  0.0000E+00  0.4640E+01
     12.503  0.0000E+00  0.4640E+01
