 vasp.6.4.3 19Mar24 (build Apr 09 2025 20:43:19) complex                        
  
 executed on             LinuxIFC date 2025.04.14  05:35:18
 running   36 mpi-ranks, on    1 nodes
 distrk:  each k-point on   36 cores,    1 groups
 distr:  one band on NCORE=   9 cores,    4 groups


--------------------------------------------------------------------------------------------------------


 INCAR:
   PREC = Accurate
   IBRION = 2
   NSW = 100
   NELMIN = 5
   ISIF = 2
   ENCUT = 520
   EDIFF = 1.000000e-08
   EDIFFG = -1.000000e-5
   ISMEAR = 0
   SIGMA = 0.05
   IALGO = 38
   LREAL = .FALSE.
   ADDGRID = .TRUE.
   LWAVE = .FALSE.
   LCHARG = .FALSE.
   NCORE = 9

 POTCAR:    PAW_PBE Bi_d 06Sep2000                
 POTCAR:    PAW_PBE Se 06Sep2000                  
 POTCAR:    PAW_PBE O 08Apr2002                   
 POTCAR:    PAW_PBE S 06Sep2000                   
 POTCAR:    PAW_PBE Bi_d 06Sep2000                
   SHA256 =  572e7eac3f9482ff025db24f2820381a7a3856069fa85913dc654793f618f69a Bi_d/POTCAR           
   COPYR  = (c) Copyright 06Sep2000 Georg Kresse                                                    
   COPYR  = This file is part of the software VASP. Any use, copying, and all other rights are regul
   COPYR  = If you do not have a valid VASP license, you may not use, copy or distribute this file. 
   VRHFIN =Bi:                                                                                      
   LEXCH  = PE                                                                                      
   EATOM  =  1959.2045 eV,  143.9975 Ry                                                             
                                                                                                    
   TITEL  = PAW_PBE Bi_d 06Sep2000                                                                  
   LULTRA =        F    use ultrasoft PP ?                                                          
   IUNSCR =        1    unscreen: 0-lin 1-nonlin 2-no                                               
   RPACOR =    2.200    partial core radius                                                         
   POMASS =  208.980; ZVAL   =   15.000    mass and valenz                                          
   RCORE  =    2.500    outmost cutoff radius                                                       
   RWIGS  =    3.090; RWIGS  =    1.635    wigner-seitz radius (au A)                               
   ENMAX  =  242.839; ENMIN  =  182.129 eV                                                          
   ICORE  =        3    local potential                                                             
   LCOR   =        T    correct aug charges                                                         
   LPAW   =        T    paw PP                                                                      
   EAUG   =  442.899                                                                                
   DEXC   =    0.000                                                                                
   RMAX   =    2.551    core radius for proj-oper                                                   
   RAUG   =    1.300    factor for augmentation sphere                                              
   RDEP   =    2.650    radius for radial grids                                                     
   RDEPT  =    2.039    core radius for aug-charge                                                  
                                                                                                    
   Atomic configuration                                                                             
   16 entries                                                                                       
     n  l   j            E        occ.                                                              
     1  0  0.50    -90639.6581   2.0000                                                             
     2  0  0.50    -16282.4666   2.0000                                                             
     2  1  1.50    -13922.8286   6.0000                                                             
     3  0  0.50     -3930.4763   2.0000                                                             
     3  1  1.50     -3256.7013   6.0000                                                             
     3  2  2.50     -2581.6168  10.0000                                                             
     4  0  0.50      -902.2614   2.0000                                                             
     4  1  1.50      -681.5915   6.0000                                                             
     4  2  2.50      -429.8249  10.0000                                                             
     4  3  3.50      -152.6004  14.0000                                                             
     5  0  0.50      -157.7156   2.0000                                                             
     5  1  1.50       -95.8054   6.0000                                                             
     5  2  2.50       -27.0806  10.0000                                                             
     6  0  0.50       -14.4732   2.0000                                                             
     6  1  1.50        -4.5702   3.0000                                                             
     5  3  2.50        -2.7212   0.0000                                                             
   Description                                                                                      
     l       E           TYP  RCUT    TYP  RCUT                                                     
     2    -27.0805982     23  2.500                                                                 
     2     -1.3605826     23  2.500                                                                 
     0    -14.4732271     23  2.500                                                                 
     0      6.8029130     23  2.500                                                                 
     1     -4.5701651     23  2.500                                                                 
     1     13.6058260     23  2.500                                                                 
     3     -1.3605826      7  2.500                                                                 
  local pseudopotential read in
  partial core-charges read in
  partial kinetic energy density read in
  atomic valenz-charges read in
  non local Contribution for L=           2  read in
    real space projection operators read in
  non local Contribution for L=           2  read in
    real space projection operators read in
  non local Contribution for L=           0  read in
    real space projection operators read in
  non local Contribution for L=           0  read in
    real space projection operators read in
  non local Contribution for L=           1  read in
    real space projection operators read in
  non local Contribution for L=           1  read in
    real space projection operators read in
    PAW grid and wavefunctions read in
 
   number of l-projection  operators is LMAX  =           6
   number of lm-projection operators is LMMAX =          18
 
 POTCAR:    PAW_PBE Se 06Sep2000                  
   SHA256 =  eabb916e6b4c819dc065ce039373bc328651da483898f08fb9e49c498452bf12 Se/POTCAR             
   COPYR  = (c) Copyright 06Sep2000 Georg Kresse                                                    
   COPYR  = This file is part of the software VASP. Any use, copying, and all other rights are regul
   COPYR  = If you do not have a valid VASP license, you may not use, copy or distribute this file. 
   VRHFIN =Se: s2p4                                                                                 
   LEXCH  = PE                                                                                      
   EATOM  =   257.1286 eV,   18.8984 Ry                                                             
                                                                                                    
   TITEL  = PAW_PBE Se 06Sep2000                                                                    
   LULTRA =        F    use ultrasoft PP ?                                                          
   IUNSCR =        1    unscreen: 0-lin 1-nonlin 2-no                                               
   RPACOR =    1.900    partial core radius                                                         
   POMASS =   78.960; ZVAL   =    6.000    mass and valenz                                          
   RCORE  =    2.100    outmost cutoff radius                                                       
   RWIGS  =    2.200; RWIGS  =    1.164    wigner-seitz radius (au A)                               
   ENMAX  =  211.555; ENMIN  =  158.666 eV                                                          
   ICORE  =        3    local potential                                                             
   LCOR   =        T    correct aug charges                                                         
   LPAW   =        T    paw PP                                                                      
   EAUG   =  446.842                                                                                
   DEXC   =    0.000                                                                                
   RMAX   =    2.147    core radius for proj-oper                                                   
   RAUG   =    1.300    factor for augmentation sphere                                              
   RDEP   =    2.177    radius for radial grids                                                     
   RDEPT  =    1.928    core radius for aug-charge                                                  
                                                                                                    
   Atomic configuration                                                                             
   10 entries                                                                                       
     n  l   j            E        occ.                                                              
     1  0  0.50    -12503.4787   2.0000                                                             
     2  0  0.50     -1606.9547   2.0000                                                             
     2  1  1.50     -1413.3140   6.0000                                                             
     3  0  0.50      -213.4885   2.0000                                                             
     3  1  1.50      -152.9538   6.0000                                                             
     3  2  2.50       -53.1221  10.0000                                                             
     4  0  0.50       -17.2865   2.0000                                                             
     4  1  0.50        -6.5110   4.0000                                                             
     4  2  2.50        -6.8029   0.0000                                                             
     4  3  2.50        -6.8029   0.0000                                                             
   Description                                                                                      
     l       E           TYP  RCUT    TYP  RCUT                                                     
     0    -17.2865377     23  2.100                                                                 
     0    -15.3094411     23  2.100                                                                 
     1     -6.5110275     23  2.100                                                                 
     1     -0.0695192     23  2.100                                                                 
     2     -6.8029130     23  2.100                                                                 
     3     -1.3605826      7  2.100                                                                 
  local pseudopotential read in
  partial core-charges read in
  partial kinetic energy density read in
  atomic valenz-charges read in
  non local Contribution for L=           0  read in
    real space projection operators read in
  non local Contribution for L=           0  read in
    real space projection operators read in
  non local Contribution for L=           1  read in
    real space projection operators read in
  non local Contribution for L=           1  read in
    real space projection operators read in
  non local Contribution for L=           2  read in
    real space projection operators read in
    PAW grid and wavefunctions read in
 
   number of l-projection  operators is LMAX  =           5
   number of lm-projection operators is LMMAX =          13
 
 POTCAR:    PAW_PBE O 08Apr2002                   
   SHA256 =  818f92134a0a090dccd8ba1447fa70422a3b330e708bb4f08108d8ae51209ddf O/POTCAR              
   COPYR  = (c) Copyright 08Apr2002 Georg Kresse                                                    
   COPYR  = This file is part of the software VASP. Any use, copying, and all other rights are regul
   COPYR  = If you do not have a valid VASP license, you may not use, copy or distribute this file. 
   VRHFIN =O: s2p4                                                                                  
   LEXCH  = PE                                                                                      
   EATOM  =   432.3788 eV,   31.7789 Ry                                                             
                                                                                                    
   TITEL  = PAW_PBE O 08Apr2002                                                                     
   LULTRA =        F    use ultrasoft PP ?                                                          
   IUNSCR =        1    unscreen: 0-lin 1-nonlin 2-no                                               
   RPACOR =    1.200    partial core radius                                                         
   POMASS =   16.000; ZVAL   =    6.000    mass and valenz                                          
   RCORE  =    1.520    outmost cutoff radius                                                       
   RWIGS  =    1.550; RWIGS  =    0.820    wigner-seitz radius (au A)                               
   ENMAX  =  400.000; ENMIN  =  300.000 eV                                                          
   ICORE  =        2    local potential                                                             
   LCOR   =        T    correct aug charges                                                         
   LPAW   =        T    paw PP                                                                      
   EAUG   =  605.392                                                                                
   DEXC   =    0.000                                                                                
   RMAX   =    1.553    core radius for proj-oper                                                   
   RAUG   =    1.300    factor for augmentation sphere                                              
   RDEP   =    1.550    radius for radial grids                                                     
   RDEPT  =    1.329    core radius for aug-charge                                                  
                                                                                                    
   Atomic configuration                                                                             
    4 entries                                                                                       
     n  l   j            E        occ.                                                              
     1  0  0.50      -514.6923   2.0000                                                             
     2  0  0.50       -23.9615   2.0000                                                             
     2  1  0.50        -9.0305   4.0000                                                             
     3  2  1.50        -9.5241   0.0000                                                             
   Description                                                                                      
     l       E           TYP  RCUT    TYP  RCUT                                                     
     0    -23.9615318     23  1.200                                                                 
     0     -9.5240782     23  1.200                                                                 
     1     -9.0304911     23  1.520                                                                 
     1      8.1634956     23  1.520                                                                 
     2     -9.5240782      7  1.500                                                                 
  local pseudopotential read in
  partial core-charges read in
  partial kinetic energy density read in
  kinetic energy density of atom read in
  atomic valenz-charges read in
  non local Contribution for L=           0  read in
    real space projection operators read in
  non local Contribution for L=           0  read in
    real space projection operators read in
  non local Contribution for L=           1  read in
    real space projection operators read in
  non local Contribution for L=           1  read in
    real space projection operators read in
    PAW grid and wavefunctions read in
 
   number of l-projection  operators is LMAX  =           4
   number of lm-projection operators is LMMAX =           8
 
 POTCAR:    PAW_PBE S 06Sep2000                   
   SHA256 =  0fc7481fb0695f01bdc6462160264c5c84044ae9ec85a907d398b887a2bc3132 S/POTCAR              
   COPYR  = (c) Copyright 06Sep2000 Georg Kresse                                                    
   COPYR  = This file is part of the software VASP. Any use, copying, and all other rights are regul
   COPYR  = If you do not have a valid VASP license, you may not use, copy or distribute this file. 
   VRHFIN =S : s2p4                                                                                 
   LEXCH  = PE                                                                                      
   EATOM  =   276.8230 eV,   20.3459 Ry                                                             
                                                                                                    
   TITEL  = PAW_PBE S 06Sep2000                                                                     
   LULTRA =        F    use ultrasoft PP ?                                                          
   IUNSCR =        1    unscreen: 0-lin 1-nonlin 2-no                                               
   RPACOR =    1.500    partial core radius                                                         
   POMASS =   32.066; ZVAL   =    6.000    mass and valenz                                          
   RCORE  =    1.900    outmost cutoff radius                                                       
   RWIGS  =    2.200; RWIGS  =    1.164    wigner-seitz radius (au A)                               
   ENMAX  =  258.689; ENMIN  =  194.016 eV                                                          
   ICORE  =        2    local potential                                                             
   LCOR   =        T    correct aug charges                                                         
   LPAW   =        T    paw PP                                                                      
   EAUG   =  335.092                                                                                
   DEXC   =    0.000                                                                                
   RMAX   =    1.942    core radius for proj-oper                                                   
   RAUG   =    1.300    factor for augmentation sphere                                              
   RDEP   =    1.954    radius for radial grids                                                     
   RDEPT  =    1.744    core radius for aug-charge                                                  
                                                                                                    
   Atomic configuration                                                                             
    6 entries                                                                                       
     n  l   j            E        occ.                                                              
     1  0  0.50     -2405.8406   2.0000                                                             
     2  0  0.50      -211.7007   2.0000                                                             
     2  1  1.50      -156.4958   6.0000                                                             
     3  0  0.50       -17.2562   2.0000                                                             
     3  1  0.50        -7.0085   4.0000                                                             
     3  2  1.50        -6.8029   0.0000                                                             
   Description                                                                                      
     l       E           TYP  RCUT    TYP  RCUT                                                     
     0    -17.2561641     23  1.900                                                                 
     0    -15.8743224     23  1.900                                                                 
     1     -7.0085400     23  1.900                                                                 
     1     -2.7779785     23  1.900                                                                 
     2     -6.8029130     23  1.900                                                                 
  local pseudopotential read in
  partial core-charges read in
  partial kinetic energy density read in
  atomic valenz-charges read in
  non local Contribution for L=           0  read in
    real space projection operators read in
  non local Contribution for L=           0  read in
    real space projection operators read in
  non local Contribution for L=           1  read in
    real space projection operators read in
  non local Contribution for L=           1  read in
    real space projection operators read in
    PAW grid and wavefunctions read in
 
   number of l-projection  operators is LMAX  =           4
   number of lm-projection operators is LMMAX =           8
 
 -----------------------------------------------------------------------------
|                                                                             |
|               ----> ADVICE to this user running VASP <----                  |
|                                                                             |
|     You have a (more or less) 'large supercell' and for larger cells it     |
|     might be more efficient to use real-space projection operators.         |
|     Therefore, try LREAL= Auto in the INCAR file.                           |
|     Mind: For very accurate calculation, you might also keep the            |
|     reciprocal projection scheme (i.e. LREAL=.FALSE.).                      |
|                                                                             |
 -----------------------------------------------------------------------------

  PAW_PBE Bi_d 06Sep2000                :
 energy of atom  1       EATOM=-1959.2045
 kinetic energy error for atom=    0.0040 (will be added to EATOM!!)
  PAW_PBE Se 06Sep2000                  :
 energy of atom  2       EATOM= -257.1286
 kinetic energy error for atom=    0.0007 (will be added to EATOM!!)
  PAW_PBE O 08Apr2002                   :
 energy of atom  3       EATOM= -432.3788
 kinetic energy error for atom=    0.0208 (will be added to EATOM!!)
  PAW_PBE S 06Sep2000                   :
 energy of atom  4       EATOM= -276.8230
 kinetic energy error for atom=    0.0016 (will be added to EATOM!!)
 
 
 POSCAR: generated by phonopy
  positions in direct lattice
  velocities in cartesian coordinates


 exchange-correlation table for PE
   RHO(1)=    0.500       N(1)  =     2000
   RHO(2)=  100.500       N(2)  =     4000
 


--------------------------------------------------------------------------------------------------------


 ion  position               nearest neighbor table
   1  0.249  0.249  0.853-  24 2.35  28 2.35  25 2.36  30 2.36  40 3.34  18 3.35  17 3.35  13 3.68
                             5 3.78   6 3.79   7 3.79   8 3.79
   2  0.751  0.249  0.853-  24 2.35  29 2.35  25 2.36  31 2.36  40 3.34  18 3.35  17 3.35  14 3.68
                             5 3.78   6 3.79   7 3.79   8 3.79
   3  0.249  0.751  0.853-  26 2.35  28 2.35  27 2.36  30 2.36  40 3.34  18 3.35  17 3.35  15 3.68
                             5 3.78   6 3.79   7 3.79   8 3.79
   4  0.751  0.751  0.853-  26 2.35  29 2.35  27 2.36  31 2.36  40 3.34  18 3.35  17 3.35  16 3.68
                             5 3.78   6 3.79   7 3.79   8 3.79
   5  0.000  0.000  0.648-  24 2.35  26 2.35  28 2.35  29 2.35  20 3.36  21 3.36  22 3.36  23 3.36
                             9 3.70   2 3.78   3 3.78   4 3.78   1 3.78
   6  0.500  0.000  0.649-  28 2.35  29 2.35  25 2.36  27 2.36  10 3.72   2 3.79   3 3.79   4 3.79
                             1 3.79
   7  0.000  0.500  0.649-  24 2.35  26 2.35  30 2.36  31 2.36  11 3.72   2 3.79   3 3.79   4 3.79
                             1 3.79
   8  0.500  0.500  0.650-  25 2.35  27 2.35  30 2.35  31 2.35  12 3.75   2 3.79   3 3.79   4 3.79
                             1 3.79
   9  0.000  0.000  0.352-  32 2.35  33 2.35  36 2.35  38 2.35  20 3.36  21 3.36  22 3.36  23 3.36
                             5 3.70  13 3.78  14 3.78  15 3.78  16 3.78
  10  0.500  0.000  0.351-  32 2.35  33 2.35  37 2.36  39 2.36   6 3.72  13 3.79  14 3.79  15 3.79
                            16 3.79
  11  0.000  0.500  0.351-  36 2.35  38 2.35  34 2.36  35 2.36   7 3.72  13 3.79  14 3.79  15 3.79
                            16 3.79
  12  0.500  0.500  0.350-  34 2.35  35 2.35  37 2.35  39 2.35   8 3.75  13 3.79  14 3.79  15 3.79
                            16 3.79
  13  0.249  0.249  0.147-  32 2.35  36 2.35  34 2.36  37 2.36  40 3.34  18 3.35  17 3.35   1 3.68
                             9 3.78  11 3.79  10 3.79  12 3.79
  14  0.751  0.249  0.147-  33 2.35  36 2.35  35 2.36  37 2.36  40 3.34  18 3.35  17 3.35   2 3.68
                             9 3.78  11 3.79  10 3.79  12 3.79
  15  0.249  0.751  0.147-  32 2.35  38 2.35  34 2.36  39 2.36  40 3.34  18 3.35  17 3.35   3 3.68
                             9 3.78  11 3.79  10 3.79  12 3.79
  16  0.751  0.751  0.147-  33 2.35  38 2.35  35 2.36  39 2.36  40 3.34  18 3.35  17 3.35   4 3.68
                             9 3.78  11 3.79  10 3.79  12 3.79
  17  0.500  0.000  0.000-   1 3.35   2 3.35   3 3.35   4 3.35  13 3.35  14 3.35  15 3.35  16 3.35

  18  0.000  0.500  0.000-   1 3.35   2 3.35   3 3.35   4 3.35  13 3.35  14 3.35  15 3.35  16 3.35

  19  0.500  0.500  0.000-
  20  0.250  0.250  0.500-   5 3.36   9 3.36
  21  0.750  0.250  0.500-   5 3.36   9 3.36
  22  0.250  0.750  0.500-   5 3.36   9 3.36
  23  0.750  0.750  0.500-   5 3.36   9 3.36
  24  0.000  0.250  0.751-   1 2.35   2 2.35   7 2.35   5 2.35
  25  0.500  0.250  0.751-   8 2.35   6 2.36   1 2.36   2 2.36
  26  0.000  0.750  0.751-   3 2.35   4 2.35   7 2.35   5 2.35
  27  0.500  0.750  0.751-   8 2.35   6 2.36   3 2.36   4 2.36
  28  0.250  0.000  0.751-   1 2.35   3 2.35   6 2.35   5 2.35
  29  0.750  0.000  0.751-   2 2.35   4 2.35   6 2.35   5 2.35
  30  0.250  0.500  0.751-   8 2.35   7 2.36   1 2.36   3 2.36
  31  0.750  0.500  0.751-   8 2.35   7 2.36   2 2.36   4 2.36
  32  0.250  0.000  0.249-  13 2.35  15 2.35  10 2.35   9 2.35
  33  0.750  0.000  0.249-  14 2.35  16 2.35  10 2.35   9 2.35
  34  0.250  0.500  0.249-  12 2.35  11 2.36  13 2.36  15 2.36
  35  0.750  0.500  0.249-  12 2.35  11 2.36  14 2.36  16 2.36
  36  0.000  0.250  0.249-  13 2.35  14 2.35  11 2.35   9 2.35
  37  0.500  0.250  0.249-  12 2.35  10 2.36  13 2.36  14 2.36
  38  0.000  0.750  0.249-  15 2.35  16 2.35  11 2.35   9 2.35
  39  0.500  0.750  0.249-  12 2.35  10 2.36  15 2.36  16 2.36
  40  0.000  0.000  0.000-   1 3.34   2 3.34   3 3.34   4 3.34  13 3.34  14 3.34  15 3.34  16 3.34

 
  LATTYP: Found a simple tetragonal cell.
 ALAT       =     7.9185606392
 C/A-ratio  =     1.5781187256
  
  Lattice vectors:
  
 A1 = (   7.9185606392,   0.0000000000,   0.0000000000)
 A2 = (   0.0000000000,   7.9185606392,   0.0000000000)
 A3 = (   0.0000000000,   0.0000000000,  12.4964288245)


Analysis of symmetry for initial positions (statically):
=====================================================================
 Subroutine PRICEL returns:
 Original cell was already a primitive cell.
 

 Routine SETGRP: Setting up the symmetry group for a 
 simple tetragonal supercell.


 Subroutine GETGRP returns: Found 16 space group operations
 (whereof 16 operations were pure point group operations)
 out of a pool of 16 trial point group operations.


The static configuration has the point symmetry D_4h.


Analysis of symmetry for dynamics (positions and initial velocities):
=====================================================================
 Subroutine PRICEL returns:
 Original cell was already a primitive cell.
 

 Routine SETGRP: Setting up the symmetry group for a 
 simple tetragonal supercell.


 Subroutine GETGRP returns: Found 16 space group operations
 (whereof 16 operations were pure point group operations)
 out of a pool of 16 trial point group operations.


The dynamic configuration has the point symmetry D_4h.


 Subroutine INISYM returns: Found 16 space group operations
 (whereof 16 operations are pure point group operations),
 and found     1 'primitive' translations


----------------------------------------------------------------------------------------

                                     Primitive cell                                     

  volume of cell :     783.5711

  direct lattice vectors                    reciprocal lattice vectors
     7.918560639  0.000000000  0.000000000     0.126285577  0.000000000  0.000000000
     0.000000000  7.918560639  0.000000000     0.000000000  0.126285577  0.000000000
     0.000000000  0.000000000 12.496428824     0.000000000  0.000000000  0.080022862

  length of vectors
     7.918560639  7.918560639 12.496428824     0.126285577  0.126285577  0.080022862

  position of ions in fractional coordinates (direct lattice)
     0.248966543  0.248966543  0.852820205
     0.751033457  0.248966543  0.852820205
     0.248966543  0.751033457  0.852820205
     0.751033457  0.751033457  0.852820205
     0.000000000  0.000000000  0.648172513
     0.500000000  0.000000000  0.648980013
     0.000000000  0.500000000  0.648980013
     0.500000000  0.500000000  0.649897437
     0.000000000  0.000000000  0.351827487
     0.500000000  0.000000000  0.351019987
     0.000000000  0.500000000  0.351019987
     0.500000000  0.500000000  0.350102563
     0.248966543  0.248966543  0.147179795
     0.751033457  0.248966543  0.147179795
     0.248966543  0.751033457  0.147179795
     0.751033457  0.751033457  0.147179795
     0.500000000  0.000000000  0.000000000
     0.000000000  0.500000000  0.000000000
     0.500000000  0.500000000  0.000000000
     0.249937161  0.249937161  0.500000000
     0.750062839  0.249937161  0.500000000
     0.249937161  0.750062839  0.500000000
     0.750062839  0.750062839  0.500000000
     0.000000000  0.249600661  0.750547334
     0.500000000  0.249737048  0.751323593
     0.000000000  0.750399339  0.750547334
     0.500000000  0.750262952  0.751323593
     0.249600661  0.000000000  0.750547334
     0.750399339  0.000000000  0.750547334
     0.249737048  0.500000000  0.751323593
     0.750262952  0.500000000  0.751323593
     0.249600661  0.000000000  0.249452666
     0.750399339  0.000000000  0.249452666
     0.249737048  0.500000000  0.248676407
     0.750262952  0.500000000  0.248676407
     0.000000000  0.249600661  0.249452666
     0.500000000  0.249737048  0.248676407
     0.000000000  0.750399339  0.249452666
     0.500000000  0.750262952  0.248676407
     0.000000000  0.000000000  0.000000000

  ion indices of the primitive-cell ions
   primitive index   ion index
                 1           1
                 2           2
                 3           3
                 4           4
                 5           5
                 6           6
                 7           7
                 8           8
                 9           9
                10          10
                11          11
                12          12
                13          13
                14          14
                15          15
                16          16
                17          17
                18          18
                19          19
                20          20
                21          21
                22          22
                23          23
                24          24
                25          25
                26          26
                27          27
                28          28
                29          29
                30          30
                31          31
                32          32
                33          33
                34          34
                35          35
                36          36
                37          37
                38          38
                39          39
                40          40

----------------------------------------------------------------------------------------

 
 
 KPOINTS: K-Spacing Value to Generate K-Mesh: 0.03

Automatic generation of k-mesh.
 Grid dimensions read from file:
 generate k-points for:    4    4    3

 Generating k-lattice:

  Cartesian coordinates                     Fractional coordinates (reciprocal lattice)
     0.031571394  0.000000000  0.000000000     0.250000000  0.000000000  0.000000000
     0.000000000  0.031571394  0.000000000     0.000000000  0.250000000  0.000000000
     0.000000000  0.000000000  0.026674287     0.000000000  0.000000000  0.333333333

  Length of vectors
     0.031571394  0.031571394  0.026674287

  Shift w.r.t. Gamma in fractional coordinates (k-lattice)
     0.000000000  0.000000000  0.000000000

 
 Subroutine IBZKPT returns following result:
 ===========================================
 
 Found     12 irreducible k-points:
 
 Following reciprocal coordinates:
            Coordinates               Weight
  0.000000  0.000000  0.000000      1.000000
  0.250000  0.000000  0.000000      4.000000
  0.500000  0.000000  0.000000      2.000000
  0.250000  0.250000  0.000000      4.000000
  0.500000  0.250000  0.000000      4.000000
  0.500000  0.500000  0.000000      1.000000
  0.000000  0.000000  0.333333      2.000000
  0.250000  0.000000  0.333333      8.000000
  0.500000  0.000000  0.333333      4.000000
  0.250000  0.250000  0.333333      8.000000
  0.500000  0.250000  0.333333      8.000000
  0.500000  0.500000  0.333333      2.000000
 
 Following cartesian coordinates:
            Coordinates               Weight
  0.000000  0.000000  0.000000      1.000000
  0.031887  0.000000  0.000000      4.000000
  0.063774  0.000000  0.000000      2.000000
  0.031887  0.031887  0.000000      4.000000
  0.063774  0.031887  0.000000      4.000000
  0.063774  0.063774  0.000000      1.000000
  0.000000  0.000000  0.026941      2.000000
  0.031887  0.000000  0.026941      8.000000
  0.063774  0.000000  0.026941      4.000000
  0.031887  0.031887  0.026941      8.000000
  0.063774  0.031887  0.026941      8.000000
  0.063774  0.063774  0.026941      2.000000
 


--------------------------------------------------------------------------------------------------------




 Dimension of arrays:
   k-points           NKPTS =     12   k-points in BZ     NKDIM =     12   number of bands    NBANDS=    232
   number of dos      NEDOS =    301   number of ions     NIONS =     40
   non local maximal  LDIM  =      6   non local SUM 2l+1 LMDIM =     18
   total plane-waves  NPLWV = 345600
   max r-space proj   IRMAX =      1   max aug-charges    IRDMAX= 156118
   dimension x,y,z NGX =    60 NGY =   60 NGZ =   96
   dimension x,y,z NGXF=   120 NGYF=  120 NGZF=  192
   support grid    NGXF=   240 NGYF=  240 NGZF=  384
   ions per type =              16   7  16   1
   NGX,Y,Z   is equivalent  to a cutoff of  12.60, 12.60, 12.77 a.u.
   NGXF,Y,Z  is equivalent  to a cutoff of  25.19, 25.19, 25.54 a.u.

 SYSTEM =  unknown system                          
 POSCAR =  generated by phonopy                    

 Startparameter for this run:
   NWRITE =      2    write-flag & timer
   PREC   = accura    normal or accurate (medium, high low for compatibility)
   ISTART =      0    job   : 0-new  1-cont  2-samecut
   ICHARG =      2    charge: 1-file 2-atom 10-const
   ISPIN  =      1    spin polarized calculation?
   LNONCOLLINEAR =      F non collinear calculations
   LSORBIT =      F    spin-orbit coupling
   INIWAV =      1    electr: 0-lowe 1-rand  2-diag
   LASPH  =      F    aspherical Exc in radial PAW
 Electronic Relaxation 1
   ENCUT  =  520.0 eV  38.22 Ry    6.18 a.u.  14.72 14.72 23.24*2*pi/ulx,y,z
   ENINI  =  520.0     initial cutoff
   ENAUG  =  605.4 eV  augmentation charge cutoff
   NELM   =     60;   NELMIN=  5; NELMDL= -5     # of ELM steps 
   EDIFF  = 0.1E-07   stopping-criterion for ELM
   LREAL  =      F    real-space projection
   NLSPLINE    = F    spline interpolate recip. space projectors
   LCOMPAT=      F    compatible to vasp.4.4
   GGA_COMPAT  = T    GGA compatible to vasp.4.4-vasp.4.6
   LMAXPAW     = -100 max onsite density
   LMAXMIX     =    2 max onsite mixed and CHGCAR
   VOSKOWN=      0    Vosko Wilk Nusair interpolation
   ROPT   =    0.00000   0.00000   0.00000   0.00000
 Ionic relaxation
   EDIFFG = -.1E-04   stopping-criterion for IOM
   NSW    =    100    number of steps for IOM
   NBLOCK =      1;   KBLOCK =    100    inner block; outer block 
   IBRION =      2    ionic relax: 0-MD 1-quasi-New 2-CG
   NFREE  =      1    steps in history (QN), initial steepest desc. (CG)
   ISIF   =      2    stress and relaxation
   IWAVPR =     11    prediction:  0-non 1-charg 2-wave 3-comb
   ISYM   =      2    0-nonsym 1-usesym 2-fastsym
   LCORR  =      T    Harris-Foulkes like correction to forces

   POTIM  = 0.5000    time-step for ionic-motion
   TEIN   =    0.0    initial temperature
   TEBEG  =    0.0;   TEEND  =   0.0 temperature during run
   SMASS  =  -3.00    Nose mass-parameter (am)
   estimated Nose-frequenzy (Omega)   =  0.10E-29 period in steps = 0.13E+47 mass=  -0.143E-26a.u.
   SCALEE = 1.0000    scale energy and forces
   NPACO  =    256;   APACO  = 10.0  distance and # of slots for P.C.
   PSTRESS=    0.0 pullay stress

  Mass of Ions in am
   POMASS = 208.98 78.96 16.00 32.07
  Ionic Valenz
   ZVAL   =  15.00  6.00  6.00  6.00
  Atomic Wigner-Seitz radii
   RWIGS  =  -1.00 -1.00 -1.00 -1.00
  virtual crystal weights 
   VCA    =   1.00  1.00  1.00  1.00
   NELECT =     384.0000    total number of electrons
   NUPDOWN=      -1.0000    fix difference up-down

 DOS related values:
   EMIN   =  10.00;   EMAX   =-10.00  energy-range for DOS
   EFERMI =   0.00;   METHOD = LEGACY      
   ISMEAR =     0;   SIGMA  =   0.05  broadening in eV -4-tet -1-fermi 0-gaus

 Electronic relaxation 2 (details)
   IALGO  =     38    algorithm
   LDIAG  =      T    sub-space diagonalisation (order eigenvalues)
   LSUBROT=      F    optimize rotation matrix (better conditioning)
   TURBO    =      0    0=normal 1=particle mesh
   IRESTART =      0    0=no restart 2=restart with 2 vectors
   NREBOOT  =      0    no. of reboots
   NMIN     =      0    reboot dimension
   EREF     =   0.00    reference energy to select bands
   IMIX   =      4    mixing-type and parameters
     AMIX     =   0.40;   BMIX     =  1.00
     AMIX_MAG =   1.60;   BMIX_MAG =  1.00
     AMIN     =   0.10
     WC   =   100.;   INIMIX=   1;  MIXPRE=   1;  MAXMIX= -45

 Intra band minimization:
   WEIMIN = 0.0010     energy-eigenvalue tresh-hold
   EBREAK =  0.11E-10  absolut break condition
   DEPER  =   0.30     relativ break condition  

   TIME   =   0.40     timestep for ELM

  volume/ion in A,a.u.               =      19.59       132.19
  Fermi-wavevector in a.u.,A,eV,Ry     =   1.290701  2.439072 22.666082  1.665910
  Thomas-Fermi vector in A             =   2.422517
 
 Write flags
   LWAVE        =      F    write WAVECAR
   LDOWNSAMPLE  =      F    k-point downsampling of WAVECAR
   LCHARG       =      F    write CHGCAR
   LVTOT        =      F    write LOCPOT, total local potential
   LVHAR        =      F    write LOCPOT, Hartree potential only
   WRT_POTENTIAL= false  ! write potential to hdf5 file
   LELF         =      F    write electronic localiz. function (ELF)
   LORBIT       =      0    0 simple, 1 ext, 2 COOP (PROOUT), +10 PAW based schemes


 Dipole corrections
   LMONO      =      F    monopole corrections only (constant potential shift)
   LDIPOL     =      F    correct potential (dipole corrections)
   IDIPOL     =      0    1-x, 2-y, 3-z, 4-all directions 
   EPSILON    =  1.0000000 bulk dielectric constant
   LVACPOTAV  =      F  vacuum potentials using an averaging scheme for the charge density
   VACPOTFLAT =  0.1000000 required flatness to determine vacuum potential
 Exchange correlation treatment:
   GGA     = PE    functional components
   XC_C    = 1    coefficients multiplying the functional components
   LIBXC   =     F    Libxc                    
   VOSKOWN =     0    Vosko Wilk Nusair interpolation
   LHFCALC =     F    Hartree Fock is set to
   LHFONE  =     F    Hartree Fock one center treatment
   AEXX    =    0.0000 exact exchange contribution

 Parameters of functionals:
   PE:
     No parameter
 
 Van der Waals corrections
   IVDW    =     0    specifies the selected vdW correction

 Linear response parameters
   LEPSILON=     F    determine dielectric tensor
   LRPA    =     F    only Hartree local field effects (RPA)
   LNABLA  =     F    use nabla operator in PAW spheres
   LVEL    =     F    velocity operator in full k-point grid
   CSHIFT  =0.1000    complex shift for real part using Kramers Kronig
   OMEGAMAX=  -1.0    maximum frequency
   DEG_THRESHOLD= 0.2000000E-02 threshold for treating states as degnerate
   RTIME   =   -0.100 relaxation time in fs
  (WPLASMAI=    0.000 imaginary part of plasma frequency in eV, 0.658/RTIME)
   DFIELD  = 0.0000000 0.0000000 0.0000000 field for delta impulse in time
 
  Optional k-point grid parameters
   LKPOINTS_OPT  =     F    use optional k-point grid
   KPOINTS_OPT_MODE=     1    mode for optional k-point grid
 
 Orbital magnetization related:
   ORBITALMAG=     F  switch on orbital magnetization
   LCHIMAG   =     F  perturbation theory with respect to B field
   DQ        =  0.001000  dq finite difference perturbation B field
   LLRAUG    =     F  two centre corrections for induced B field
   LBONE     =     F  B-component reconstruction in AE one-centre
   LVGVCALC  =     T  calculate vGv susceptibility
   LVGVAPPL  =     F  apply vGv susceptibility instead of pGv for G=0

 Random number generation:
   RANDOM_GENERATOR = DEFAULT
   PCG_SEED         = not used


--------------------------------------------------------------------------------------------------------


 conjugate gradient relaxation of ions
 charge density and potential will be updated during run
 non-spin polarized calculation
 Variant of blocked Davidson
 Davidson routine will perform the subspace rotation
 perform sub-space diagonalisation
    after iterative eigenvector-optimisation
 modified Broyden-mixing scheme, WC =      100.0
 initial mixing is a Kerker type mixing with AMIX =  0.4000 and BMIX =      1.0000
 Hartree-type preconditioning will be used
 using additional bands           40
 reciprocal scheme for non local part
 use partial core corrections
 calculate Harris-corrections to forces 
   (improved forces if not selfconsistent)
 use gradient corrections 
 use of overlap-Matrix (Vanderbilt PP)
 Gauss-broadening in eV      SIGMA  =   0.05


--------------------------------------------------------------------------------------------------------


  energy-cutoff  :      520.00
  volume of cell :      783.57
      direct lattice vectors                 reciprocal lattice vectors
     7.918560639  0.000000000  0.000000000     0.126285577  0.000000000  0.000000000
     0.000000000  7.918560639  0.000000000     0.000000000  0.126285577  0.000000000
     0.000000000  0.000000000 12.496428824     0.000000000  0.000000000  0.080022862

  length of vectors
     7.918560639  7.918560639 12.496428824     0.126285577  0.126285577  0.080022862


 
 k-points in units of 2pi/SCALE and weight: K-Spacing Value to Generate K-Mesh: 0.03
   0.00000000  0.00000000  0.00000000       0.021
   0.03188711  0.00000000  0.00000000       0.083
   0.06377422  0.00000000  0.00000000       0.042
   0.03188711  0.03188711  0.00000000       0.083
   0.06377422  0.03188711  0.00000000       0.083
   0.06377422  0.06377422  0.00000000       0.021
   0.00000000  0.00000000  0.02694103       0.042
   0.03188711  0.00000000  0.02694103       0.167
   0.06377422  0.00000000  0.02694103       0.083
   0.03188711  0.03188711  0.02694103       0.167
   0.06377422  0.03188711  0.02694103       0.167
   0.06377422  0.06377422  0.02694103       0.042
 
 k-points in reciprocal lattice and weights: K-Spacing Value to Generate K-Mesh: 0.03
   0.00000000  0.00000000  0.00000000       0.021
   0.25000000  0.00000000  0.00000000       0.083
   0.50000000  0.00000000  0.00000000       0.042
   0.25000000  0.25000000  0.00000000       0.083
   0.50000000  0.25000000  0.00000000       0.083
   0.50000000  0.50000000  0.00000000       0.021
   0.00000000  0.00000000  0.33333333       0.042
   0.25000000  0.00000000  0.33333333       0.167
   0.50000000  0.00000000  0.33333333       0.083
   0.25000000  0.25000000  0.33333333       0.167
   0.50000000  0.25000000  0.33333333       0.167
   0.50000000  0.50000000  0.33333333       0.042
 
 position of ions in fractional coordinates (direct lattice) 
   0.24896654  0.24896654  0.85282021
   0.75103346  0.24896654  0.85282021
   0.24896654  0.75103346  0.85282021
   0.75103346  0.75103346  0.85282021
   0.00000000  0.00000000  0.64817251
   0.50000000  0.00000000  0.64898001
   0.00000000  0.50000000  0.64898001
   0.50000000  0.50000000  0.64989744
   0.00000000  0.00000000  0.35182749
   0.50000000  0.00000000  0.35101999
   0.00000000  0.50000000  0.35101999
   0.50000000  0.50000000  0.35010256
   0.24896654  0.24896654  0.14717979
   0.75103346  0.24896654  0.14717979
   0.24896654  0.75103346  0.14717979
   0.75103346  0.75103346  0.14717979
   0.50000000  0.00000000  0.00000000
   0.00000000  0.50000000  0.00000000
   0.50000000  0.50000000  0.00000000
   0.24993716  0.24993716  0.50000000
   0.75006284  0.24993716  0.50000000
   0.24993716  0.75006284  0.50000000
   0.75006284  0.75006284  0.50000000
   0.00000000  0.24960066  0.75054733
   0.50000000  0.24973705  0.75132359
   0.00000000  0.75039934  0.75054733
   0.50000000  0.75026295  0.75132359
   0.24960066  0.00000000  0.75054733
   0.75039934  0.00000000  0.75054733
   0.24973705  0.50000000  0.75132359
   0.75026295  0.50000000  0.75132359
   0.24960066  0.00000000  0.24945267
   0.75039934  0.00000000  0.24945267
   0.24973705  0.50000000  0.24867641
   0.75026295  0.50000000  0.24867641
   0.00000000  0.24960066  0.24945267
   0.50000000  0.24973705  0.24867641
   0.00000000  0.75039934  0.24945267
   0.50000000  0.75026295  0.24867641
   0.00000000  0.00000000  0.00000000
 
 position of ions in cartesian coordinates  (Angst):
   1.97145667  1.97145667 10.65720699
   5.94710397  1.97145667 10.65720699
   1.97145667  5.94710397 10.65720699
   5.94710397  5.94710397 10.65720699
   0.00000000  0.00000000  8.09984167
   3.95928032  0.00000000  8.10993255
   0.00000000  3.95928032  8.10993255
   3.95928032  3.95928032  8.12139707
   0.00000000  0.00000000  4.39658716
   3.95928032  0.00000000  4.38649628
   0.00000000  3.95928032  4.38649628
   3.95928032  3.95928032  4.37503175
   1.97145667  1.97145667  1.83922183
   5.94710397  1.97145667  1.83922183
   1.97145667  5.94710397  1.83922183
   5.94710397  5.94710397  1.83922183
   3.95928032  0.00000000  0.00000000
   0.00000000  3.95928032  0.00000000
   3.95928032  3.95928032  0.00000000
   1.97914257  1.97914257  6.24821441
   5.93941807  1.97914257  6.24821441
   1.97914257  5.93941807  6.24821441
   5.93941807  5.93941807  6.24821441
   0.00000000  1.97647797  9.37916134
   3.95928032  1.97755796  9.38886180
   0.00000000  5.94208267  9.37916134
   3.95928032  5.94100268  9.38886180
   1.97647797  0.00000000  9.37916134
   5.94208267  0.00000000  9.37916134
   1.97755796  3.95928032  9.38886180
   5.94100268  3.95928032  9.38886180
   1.97647797  0.00000000  3.11726748
   5.94208267  0.00000000  3.11726748
   1.97755796  3.95928032  3.10756702
   5.94100268  3.95928032  3.10756702
   0.00000000  1.97647797  3.11726748
   3.95928032  1.97755796  3.10756702
   0.00000000  5.94208267  3.11726748
   3.95928032  5.94100268  3.10756702
   0.00000000  0.00000000  0.00000000
 


--------------------------------------------------------------------------------------------------------


 k-point     1 :   0.0000 0.0000 0.0000  plane waves:   21079
 k-point     2 :   0.2500 0.0000 0.0000  plane waves:   21113
 k-point     3 :   0.5000 0.0000 0.0000  plane waves:   21126
 k-point     4 :   0.2500 0.2500 0.0000  plane waves:   21091
 k-point     5 :   0.5000 0.2500 0.0000  plane waves:   21072
 k-point     6 :   0.5000 0.5000 0.0000  plane waves:   21064
 k-point     7 :   0.0000 0.0000 0.3333  plane waves:   21138
 k-point     8 :   0.2500 0.0000 0.3333  plane waves:   21096
 k-point     9 :   0.5000 0.0000 0.3333  plane waves:   21106
 k-point    10 :   0.2500 0.2500 0.3333  plane waves:   21092
 k-point    11 :   0.5000 0.2500 0.3333  plane waves:   21076
 k-point    12 :   0.5000 0.5000 0.3333  plane waves:   21084

 maximum and minimum number of plane-waves per node :      2394     2302

 maximum number of plane-waves:     21138
 maximum index in each direction: 
   IXMAX=   14   IYMAX=   14   IZMAX=   23
   IXMIN=  -15   IYMIN=  -15   IZMIN=  -23


 parallel 3D FFT for wavefunctions:
    minimum data exchange during FFTs selected (reduces bandwidth)
 parallel 3D FFT for charge:
    minimum data exchange during FFTs selected (reduces bandwidth)


 total amount of memory used by VASP MPI-rank0    96102. kBytes
=======================================================================

   base      :      30000. kBytes
   nonl-proj :      17762. kBytes
   fftplans  :      13006. kBytes
   grid      :       8308. kBytes
   one-center:         77. kBytes
   wavefun   :      26949. kBytes
 
     INWAV:  cpu time      0.0000: real time      0.0000
 Broyden mixing: mesh for mixing (old mesh)
   NGX = 29   NGY = 29   NGZ = 47
  (NGX  =120   NGY  =120   NGZ  =192)
  gives a total of  39527 points

 initial charge density was supplied:
 charge density of overlapping atoms calculated
 number of electron     384.0000000 magnetization 
 keeping initial charge density in first step


--------------------------------------------------------------------------------------------------------


 Maximum index for augmentation-charges         5061 (set IRDMAX)


--------------------------------------------------------------------------------------------------------


 First call to EWALD:  gamma=   0.192
 Maximum number of real-space cells 3x 3x 2
 Maximum number of reciprocal cells 2x 2x 4

    FEWALD:  cpu time      0.0021: real time      0.0021


--------------------------------------- Ionic step        1  -------------------------------------------




--------------------------------------- Iteration      1(   1)  ---------------------------------------


    POTLOK:  cpu time      0.1784: real time      0.1784
    SETDIJ:  cpu time      0.6568: real time      0.6570
     EDDAV:  cpu time     33.1072: real time     33.1207
       DOS:  cpu time      0.0016: real time      0.0017
    --------------------------------------------
      LOOP:  cpu time     33.9440: real time     33.9577

 eigenvalue-minimisations  :  5568
 total energy-change (2. order) : 0.5560910E+04  (-0.1760468E+05)
 number of electron     384.0000000 magnetization 
 augmentation part      384.0000000 magnetization 

 Free energy of the ion-electron system (eV)
  ---------------------------------------------------
  alpha Z        PSCENC =      1289.16975503
  Ewald energy   TEWEN  =    -29015.75324908
  -Hartree energ DENC   =    -11667.52780919
  -exchange      EXHF   =         0.00000000
  -V(xc)+E(xc)   XCENC  =      1231.83791260
  PAW double counting   =     34040.00696010   -33495.80632930
  entropy T*S    EENTRO =        -0.00448991
  eigenvalues    EBANDS =      2837.33563493
  atomic energy  EATOM  =     40341.65184589
  Solvation  Ediel_sol  =         0.00000000
  ---------------------------------------------------
  free energy    TOTEN  =      5560.91023109 eV

  energy without entropy =     5560.91472100  energy(sigma->0) =     5560.91247604


--------------------------------------------------------------------------------------------------------




--------------------------------------- Iteration      1(   2)  ---------------------------------------


     EDDAV:  cpu time     33.1954: real time     33.2356
       DOS:  cpu time      0.0061: real time      0.0065
    --------------------------------------------
      LOOP:  cpu time     33.2015: real time     33.2422

 eigenvalue-minimisations  :  5592
 total energy-change (2. order) :-0.4626109E+04  (-0.4490926E+04)
 number of electron     384.0000000 magnetization 
 augmentation part      384.0000000 magnetization 

 Free energy of the ion-electron system (eV)
  ---------------------------------------------------
  alpha Z        PSCENC =      1289.16975503
  Ewald energy   TEWEN  =    -29015.75324908
  -Hartree energ DENC   =    -11667.52780919
  -exchange      EXHF   =         0.00000000
  -V(xc)+E(xc)   XCENC  =      1231.83791260
  PAW double counting   =     34040.00696010   -33495.80632930
  entropy T*S    EENTRO =        -0.01311348
  eigenvalues    EBANDS =     -1788.76516181
  atomic energy  EATOM  =     40341.65184589
  Solvation  Ediel_sol  =         0.00000000
  ---------------------------------------------------
  free energy    TOTEN  =       934.80081078 eV

  energy without entropy =      934.81392425  energy(sigma->0) =      934.80736752


--------------------------------------------------------------------------------------------------------




--------------------------------------- Iteration      1(   3)  ---------------------------------------


     EDDAV:  cpu time     35.8698: real time     35.9058
       DOS:  cpu time      0.0052: real time      0.0054
    --------------------------------------------
      LOOP:  cpu time     35.8751: real time     35.9112

 eigenvalue-minimisations  :  6224
 total energy-change (2. order) :-0.1051764E+04  (-0.9806087E+03)
 number of electron     384.0000000 magnetization 
 augmentation part      384.0000000 magnetization 

 Free energy of the ion-electron system (eV)
  ---------------------------------------------------
  alpha Z        PSCENC =      1289.16975503
  Ewald energy   TEWEN  =    -29015.75324908
  -Hartree energ DENC   =    -11667.52780919
  -exchange      EXHF   =         0.00000000
  -V(xc)+E(xc)   XCENC  =      1231.83791260
  PAW double counting   =     34040.00696010   -33495.80632930
  entropy T*S    EENTRO =        -0.00000000
  eigenvalues    EBANDS =     -2840.54195801
  atomic energy  EATOM  =     40341.65184589
  Solvation  Ediel_sol  =         0.00000000
  ---------------------------------------------------
  free energy    TOTEN  =      -116.96287195 eV

  energy without entropy =     -116.96287195  energy(sigma->0) =     -116.96287195


--------------------------------------------------------------------------------------------------------




--------------------------------------- Iteration      1(   4)  ---------------------------------------


     EDDAV:  cpu time     37.4938: real time     37.5130
       DOS:  cpu time      0.0064: real time      0.0065
    --------------------------------------------
      LOOP:  cpu time     37.5002: real time     37.5195

 eigenvalue-minimisations  :  6608
 total energy-change (2. order) :-0.1210174E+03  (-0.1173751E+03)
 number of electron     384.0000000 magnetization 
 augmentation part      384.0000000 magnetization 

 Free energy of the ion-electron system (eV)
  ---------------------------------------------------
  alpha Z        PSCENC =      1289.16975503
  Ewald energy   TEWEN  =    -29015.75324908
  -Hartree energ DENC   =    -11667.52780919
  -exchange      EXHF   =         0.00000000
  -V(xc)+E(xc)   XCENC  =      1231.83791260
  PAW double counting   =     34040.00696010   -33495.80632930
  entropy T*S    EENTRO =        -0.00000000
  eigenvalues    EBANDS =     -2961.55935544
  atomic energy  EATOM  =     40341.65184589
  Solvation  Ediel_sol  =         0.00000000
  ---------------------------------------------------
  free energy    TOTEN  =      -237.98026938 eV

  energy without entropy =     -237.98026938  energy(sigma->0) =     -237.98026938


--------------------------------------------------------------------------------------------------------




--------------------------------------- Iteration      1(   5)  ---------------------------------------


     EDDAV:  cpu time     38.2308: real time     38.2307
       DOS:  cpu time      0.0060: real time      0.0061
    CHARGE:  cpu time      1.2238: real time      1.2237
    MIXING:  cpu time      0.0064: real time      0.0065
    --------------------------------------------
      LOOP:  cpu time     39.4669: real time     39.4670

 eigenvalue-minimisations  :  6776
 total energy-change (2. order) :-0.5662985E+01  (-0.5586305E+01)
 number of electron     383.9999999 magnetization 
 augmentation part       98.5573504 magnetization 

 Broyden mixing:
  rms(total) = 0.34249E+01    rms(broyden)= 0.34243E+01
  rms(prec ) = 0.43677E+01
  weight for this iteration     100.00

 Free energy of the ion-electron system (eV)
  ---------------------------------------------------
  alpha Z        PSCENC =      1289.16975503
  Ewald energy   TEWEN  =    -29015.75324908
  -Hartree energ DENC   =    -11667.52780919
  -exchange      EXHF   =         0.00000000
  -V(xc)+E(xc)   XCENC  =      1231.83791260
  PAW double counting   =     34040.00696010   -33495.80632930
  entropy T*S    EENTRO =        -0.00000000
  eigenvalues    EBANDS =     -2967.22233998
  atomic energy  EATOM  =     40341.65184589
  Solvation  Ediel_sol  =         0.00000000
  ---------------------------------------------------
  free energy    TOTEN  =      -243.64325391 eV

  energy without entropy =     -243.64325391  energy(sigma->0) =     -243.64325391


--------------------------------------------------------------------------------------------------------




--------------------------------------- Iteration      1(   6)  ---------------------------------------


    POTLOK:  cpu time      0.1758: real time      0.1759
    SETDIJ:  cpu time      0.6566: real time      0.6566
     EDDAV:  cpu time     41.8793: real time     41.9148
       DOS:  cpu time      0.0014: real time      0.0015
    CHARGE:  cpu time      1.2502: real time      1.2534
    MIXING:  cpu time      0.0065: real time      0.0065
    --------------------------------------------
      LOOP:  cpu time     43.9698: real time     44.0086

 eigenvalue-minimisations  :  7656
 total energy-change (2. order) : 0.3458814E+02  (-0.1500955E+02)
 number of electron     384.0000000 magnetization 
 augmentation part       95.0803899 magnetization 

 Broyden mixing:
  rms(total) = 0.14043E+01    rms(broyden)= 0.14026E+01
  rms(prec ) = 0.16772E+01
  weight for this iteration     100.00

 eigenvalues of (default mixing * dielectric matrix)
  average eigenvalue GAMMA=   0.7510
  0.7510

 Free energy of the ion-electron system (eV)
  ---------------------------------------------------
  alpha Z        PSCENC =      1289.16975503
  Ewald energy   TEWEN  =    -29015.75324908
  -Hartree energ DENC   =    -11912.11182333
  -exchange      EXHF   =         0.00000000
  -V(xc)+E(xc)   XCENC  =      1251.74669699
  PAW double counting   =     34588.43685929   -33999.60379209
  entropy T*S    EENTRO =        -0.00000000
  eigenvalues    EBANDS =     -2752.59140966
  atomic energy  EATOM  =     40341.65184589
  Solvation  Ediel_sol  =         0.00000000
  ---------------------------------------------------
  free energy    TOTEN  =      -209.05511695 eV

  energy without entropy =     -209.05511695  energy(sigma->0) =     -209.05511695


--------------------------------------------------------------------------------------------------------




--------------------------------------- Iteration      1(   7)  ---------------------------------------


    POTLOK:  cpu time      0.1752: real time      0.1753
    SETDIJ:  cpu time      0.6584: real time      0.6584
     EDDAV:  cpu time     35.4809: real time     35.4950
       DOS:  cpu time      0.0017: real time      0.0018
    CHARGE:  cpu time      1.2536: real time      1.2537
    MIXING:  cpu time      0.0061: real time      0.0061
    --------------------------------------------
      LOOP:  cpu time     37.5759: real time     37.5902

 eigenvalue-minimisations  :  6128
 total energy-change (2. order) : 0.4072507E+00  (-0.2900059E+01)
 number of electron     384.0000000 magnetization 
 augmentation part       95.0087736 magnetization 

 Broyden mixing:
  rms(total) = 0.80365E+00    rms(broyden)= 0.80365E+00
  rms(prec ) = 0.87997E+00
  weight for this iteration     100.00

 eigenvalues of (default mixing * dielectric matrix)
  average eigenvalue GAMMA=   1.1222
  1.1222  1.1222

 Free energy of the ion-electron system (eV)
  ---------------------------------------------------
  alpha Z        PSCENC =      1289.16975503
  Ewald energy   TEWEN  =    -29015.75324908
  -Hartree energ DENC   =    -11818.02200445
  -exchange      EXHF   =         0.00000000
  -V(xc)+E(xc)   XCENC  =      1248.05878991
  PAW double counting   =     35278.91666303   -34683.01921973
  entropy T*S    EENTRO =        -0.00000002
  eigenvalues    EBANDS =     -2849.65044687
  atomic energy  EATOM  =     40341.65184589
  Solvation  Ediel_sol  =         0.00000000
  ---------------------------------------------------
  free energy    TOTEN  =      -208.64786628 eV

  energy without entropy =     -208.64786626  energy(sigma->0) =     -208.64786627


--------------------------------------------------------------------------------------------------------




--------------------------------------- Iteration      1(   8)  ---------------------------------------


    POTLOK:  cpu time      0.1765: real time      0.1765
    SETDIJ:  cpu time      0.6566: real time      0.6572
     EDDAV:  cpu time     42.5583: real time     42.5851
       DOS:  cpu time      0.0023: real time      0.0024
    CHARGE:  cpu time      1.2533: real time      1.2550
    MIXING:  cpu time      0.0062: real time      0.0062
    --------------------------------------------
      LOOP:  cpu time     44.6531: real time     44.6824

 eigenvalue-minimisations  :  7816
 total energy-change (2. order) :-0.1498459E+00  (-0.5901191E+00)
 number of electron     384.0000000 magnetization 
 augmentation part       95.3441701 magnetization 

 Broyden mixing:
  rms(total) = 0.34235E+00    rms(broyden)= 0.34218E+00
  rms(prec ) = 0.40583E+00
  weight for this iteration     100.00

 eigenvalues of (default mixing * dielectric matrix)
  average eigenvalue GAMMA=   1.3016
  2.2119  0.8465  0.8465

 Free energy of the ion-electron system (eV)
  ---------------------------------------------------
  alpha Z        PSCENC =      1289.16975503
  Ewald energy   TEWEN  =    -29015.75324908
  -Hartree energ DENC   =    -11804.37163759
  -exchange      EXHF   =         0.00000000
  -V(xc)+E(xc)   XCENC  =      1247.18128568
  PAW double counting   =     35633.80612304   -35031.78616999
  entropy T*S    EENTRO =        -0.00000582
  eigenvalues    EBANDS =     -2868.69565934
  atomic energy  EATOM  =     40341.65184589
  Solvation  Ediel_sol  =         0.00000000
  ---------------------------------------------------
  free energy    TOTEN  =      -208.79771218 eV

  energy without entropy =     -208.79770636  energy(sigma->0) =     -208.79770927


--------------------------------------------------------------------------------------------------------




--------------------------------------- Iteration      1(   9)  ---------------------------------------


    POTLOK:  cpu time      0.1759: real time      0.1760
    SETDIJ:  cpu time      0.6567: real time      0.6577
     EDDAV:  cpu time     40.8569: real time     40.8752
       DOS:  cpu time      0.0022: real time      0.0023
    CHARGE:  cpu time      1.2520: real time      1.2527
    MIXING:  cpu time      0.0075: real time      0.0075
    --------------------------------------------
      LOOP:  cpu time     42.9511: real time     42.9714

 eigenvalue-minimisations  :  7416
 total energy-change (2. order) : 0.6946047E-01  (-0.6378080E-01)
 number of electron     384.0000000 magnetization 
 augmentation part       95.0185864 magnetization 

 Broyden mixing:
  rms(total) = 0.15384E+00    rms(broyden)= 0.15382E+00
  rms(prec ) = 0.18472E+00
  weight for this iteration     100.00

 eigenvalues of (default mixing * dielectric matrix)
  average eigenvalue GAMMA=   1.3050
  2.4574  1.1076  0.8274  0.8274

 Free energy of the ion-electron system (eV)
  ---------------------------------------------------
  alpha Z        PSCENC =      1289.16975503
  Ewald energy   TEWEN  =    -29015.75324908
  -Hartree energ DENC   =    -11830.70826492
  -exchange      EXHF   =         0.00000000
  -V(xc)+E(xc)   XCENC  =      1248.91870495
  PAW double counting   =     35985.78311205   -35378.39462022
  entropy T*S    EENTRO =        -0.00000006
  eigenvalues    EBANDS =     -2849.39553534
  atomic energy  EATOM  =     40341.65184589
  Solvation  Ediel_sol  =         0.00000000
  ---------------------------------------------------
  free energy    TOTEN  =      -208.72825170 eV

  energy without entropy =     -208.72825164  energy(sigma->0) =     -208.72825167


--------------------------------------------------------------------------------------------------------




--------------------------------------- Iteration      1(  10)  ---------------------------------------


    POTLOK:  cpu time      0.1748: real time      0.1748
    SETDIJ:  cpu time      0.6599: real time      0.6607
     EDDAV:  cpu time     38.9679: real time     38.9693
       DOS:  cpu time      0.0016: real time      0.0017
    CHARGE:  cpu time      1.2522: real time      1.2532
    MIXING:  cpu time      0.0069: real time      0.0069
    --------------------------------------------
      LOOP:  cpu time     41.0633: real time     41.0666

 eigenvalue-minimisations  :  6952
 total energy-change (2. order) : 0.1545395E-01  (-0.1953123E-01)
 number of electron     384.0000000 magnetization 
 augmentation part       95.0284653 magnetization 

 Broyden mixing:
  rms(total) = 0.39147E-01    rms(broyden)= 0.39122E-01
  rms(prec ) = 0.40939E-01
  weight for this iteration     100.00

 eigenvalues of (default mixing * dielectric matrix)
  average eigenvalue GAMMA=   1.1615
  2.4059  1.0258  0.8252  0.8252  0.7255

 Free energy of the ion-electron system (eV)
  ---------------------------------------------------
  alpha Z        PSCENC =      1289.16975503
  Ewald energy   TEWEN  =    -29015.75324908
  -Hartree energ DENC   =    -11821.93777299
  -exchange      EXHF   =         0.00000000
  -V(xc)+E(xc)   XCENC  =      1248.58687774
  PAW double counting   =     36095.52945834   -35487.75035040
  entropy T*S    EENTRO =        -0.00000053
  eigenvalues    EBANDS =     -2858.20936174
  atomic energy  EATOM  =     40341.65184589
  Solvation  Ediel_sol  =         0.00000000
  ---------------------------------------------------
  free energy    TOTEN  =      -208.71279775 eV

  energy without entropy =     -208.71279721  energy(sigma->0) =     -208.71279748


--------------------------------------------------------------------------------------------------------




--------------------------------------- Iteration      1(  11)  ---------------------------------------


    POTLOK:  cpu time      0.1750: real time      0.1752
    SETDIJ:  cpu time      0.6573: real time      0.6576
     EDDAV:  cpu time     40.5974: real time     40.6003
       DOS:  cpu time      0.0017: real time      0.0018
    CHARGE:  cpu time      1.2523: real time      1.2526
    MIXING:  cpu time      0.0087: real time      0.0087
    --------------------------------------------
      LOOP:  cpu time     42.6924: real time     42.6963

 eigenvalue-minimisations  :  7336
 total energy-change (2. order) :-0.2552403E-02  (-0.2387807E-02)
 number of electron     384.0000000 magnetization 
 augmentation part       95.0369479 magnetization 

 Broyden mixing:
  rms(total) = 0.33999E-01    rms(broyden)= 0.33996E-01
  rms(prec ) = 0.36412E-01
  weight for this iteration     100.00

 eigenvalues of (default mixing * dielectric matrix)
  average eigenvalue GAMMA=   1.3497
  2.0091  0.8255  0.8255  1.6282  1.6282  1.1815

 Free energy of the ion-electron system (eV)
  ---------------------------------------------------
  alpha Z        PSCENC =      1289.16975503
  Ewald energy   TEWEN  =    -29015.75324908
  -Hartree energ DENC   =    -11821.92508679
  -exchange      EXHF   =         0.00000000
  -V(xc)+E(xc)   XCENC  =      1248.60266310
  PAW double counting   =     36071.88908861   -35464.56161985
  entropy T*S    EENTRO =        -0.00000051
  eigenvalues    EBANDS =     -2857.78874656
  atomic energy  EATOM  =     40341.65184589
  Solvation  Ediel_sol  =         0.00000000
  ---------------------------------------------------
  free energy    TOTEN  =      -208.71535015 eV

  energy without entropy =     -208.71534964  energy(sigma->0) =     -208.71534990


--------------------------------------------------------------------------------------------------------




--------------------------------------- Iteration      1(  12)  ---------------------------------------


    POTLOK:  cpu time      0.1746: real time      0.1749
    SETDIJ:  cpu time      0.6604: real time      0.6609
     EDDAV:  cpu time     42.3401: real time     42.3493
       DOS:  cpu time      0.0023: real time      0.0024
    CHARGE:  cpu time      1.2518: real time      1.2520
    MIXING:  cpu time      0.0071: real time      0.0071
    --------------------------------------------
      LOOP:  cpu time     44.4363: real time     44.4466

 eigenvalue-minimisations  :  7760
 total energy-change (2. order) :-0.1105217E-02  (-0.8219492E-03)
 number of electron     384.0000000 magnetization 
 augmentation part       95.0072963 magnetization 

 Broyden mixing:
  rms(total) = 0.17137E-01    rms(broyden)= 0.17132E-01
  rms(prec ) = 0.20119E-01
  weight for this iteration     100.00

 eigenvalues of (default mixing * dielectric matrix)
  average eigenvalue GAMMA=   1.3910
  2.5129  2.4318  0.8088  0.8088  1.1039  1.1039  0.9671

 Free energy of the ion-electron system (eV)
  ---------------------------------------------------
  alpha Z        PSCENC =      1289.16975503
  Ewald energy   TEWEN  =    -29015.75324908
  -Hartree energ DENC   =    -11822.87116947
  -exchange      EXHF   =         0.00000000
  -V(xc)+E(xc)   XCENC  =      1248.70973504
  PAW double counting   =     36045.23826274   -35438.78365220
  entropy T*S    EENTRO =        -0.00000041
  eigenvalues    EBANDS =     -2856.07798292
  atomic energy  EATOM  =     40341.65184589
  Solvation  Ediel_sol  =         0.00000000
  ---------------------------------------------------
  free energy    TOTEN  =      -208.71645537 eV

  energy without entropy =     -208.71645495  energy(sigma->0) =     -208.71645516


--------------------------------------------------------------------------------------------------------




--------------------------------------- Iteration      1(  13)  ---------------------------------------


    POTLOK:  cpu time      0.1757: real time      0.1758
    SETDIJ:  cpu time      0.6583: real time      0.6583
     EDDAV:  cpu time     36.8243: real time     36.8256
       DOS:  cpu time      0.0021: real time      0.0022
    CHARGE:  cpu time      1.2531: real time      1.2534
    MIXING:  cpu time      0.0071: real time      0.0071
    --------------------------------------------
      LOOP:  cpu time     38.9205: real time     38.9224

 eigenvalue-minimisations  :  6440
 total energy-change (2. order) : 0.7577596E-05  (-0.7313490E-04)
 number of electron     384.0000000 magnetization 
 augmentation part       95.0062089 magnetization 

 Broyden mixing:
  rms(total) = 0.10144E-01    rms(broyden)= 0.10144E-01
  rms(prec ) = 0.11692E-01
  weight for this iteration     100.00

 eigenvalues of (default mixing * dielectric matrix)
  average eigenvalue GAMMA=   1.3681
  2.7500  2.4197  1.1201  1.0311  0.8289  0.8289  0.9831  0.9831

 Free energy of the ion-electron system (eV)
  ---------------------------------------------------
  alpha Z        PSCENC =      1289.16975503
  Ewald energy   TEWEN  =    -29015.75324908
  -Hartree energ DENC   =    -11822.45184512
  -exchange      EXHF   =         0.00000000
  -V(xc)+E(xc)   XCENC  =      1248.70063083
  PAW double counting   =     36035.98952211   -35429.84714721
  entropy T*S    EENTRO =        -0.00000040
  eigenvalues    EBANDS =     -2856.17595984
  atomic energy  EATOM  =     40341.65184589
  Solvation  Ediel_sol  =         0.00000000
  ---------------------------------------------------
  free energy    TOTEN  =      -208.71644779 eV

  energy without entropy =     -208.71644739  energy(sigma->0) =     -208.71644759


--------------------------------------------------------------------------------------------------------




--------------------------------------- Iteration      1(  14)  ---------------------------------------


    POTLOK:  cpu time      0.1756: real time      0.1757
    SETDIJ:  cpu time      0.6603: real time      0.6603
     EDDAV:  cpu time     38.4432: real time     38.4498
       DOS:  cpu time      0.0017: real time      0.0018
    CHARGE:  cpu time      1.2532: real time      1.2532
    MIXING:  cpu time      0.0072: real time      0.0072
    --------------------------------------------
      LOOP:  cpu time     40.5412: real time     40.5481

 eigenvalue-minimisations  :  6832
 total energy-change (2. order) : 0.7736409E-04  (-0.3296770E-04)
 number of electron     384.0000000 magnetization 
 augmentation part       95.0096408 magnetization 

 Broyden mixing:
  rms(total) = 0.48464E-02    rms(broyden)= 0.48453E-02
  rms(prec ) = 0.55809E-02
  weight for this iteration     100.00

 eigenvalues of (default mixing * dielectric matrix)
  average eigenvalue GAMMA=   1.2991
  2.7248  2.3415  1.2003  0.8450  0.8450  0.9982  0.9982  1.0064  0.7329

 Free energy of the ion-electron system (eV)
  ---------------------------------------------------
  alpha Z        PSCENC =      1289.16975503
  Ewald energy   TEWEN  =    -29015.75324908
  -Hartree energ DENC   =    -11822.29994732
  -exchange      EXHF   =         0.00000000
  -V(xc)+E(xc)   XCENC  =      1248.68871159
  PAW double counting   =     36032.37054173   -35426.23336141
  entropy T*S    EENTRO =        -0.00000041
  eigenvalues    EBANDS =     -2856.31066645
  atomic energy  EATOM  =     40341.65184589
  Solvation  Ediel_sol  =         0.00000000
  ---------------------------------------------------
  free energy    TOTEN  =      -208.71637043 eV

  energy without entropy =     -208.71637001  energy(sigma->0) =     -208.71637022


--------------------------------------------------------------------------------------------------------




--------------------------------------- Iteration      1(  15)  ---------------------------------------


    POTLOK:  cpu time      0.1748: real time      0.1749
    SETDIJ:  cpu time      0.6582: real time      0.6582
     EDDAV:  cpu time     43.5733: real time     43.5740
       DOS:  cpu time      0.0015: real time      0.0015
    CHARGE:  cpu time      1.2538: real time      1.2541
    MIXING:  cpu time      0.0066: real time      0.0066
    --------------------------------------------
      LOOP:  cpu time     45.6683: real time     45.6694

 eigenvalue-minimisations  :  8048
 total energy-change (2. order) : 0.2133940E-04  (-0.6143466E-05)
 number of electron     384.0000000 magnetization 
 augmentation part       95.0120234 magnetization 

 Broyden mixing:
  rms(total) = 0.24338E-02    rms(broyden)= 0.24332E-02
  rms(prec ) = 0.27182E-02
  weight for this iteration     100.00

 eigenvalues of (default mixing * dielectric matrix)
  average eigenvalue GAMMA=   1.3149
  2.7045  2.3617  1.3184  1.3184  1.1867  0.9789  0.8220  0.8220  0.8185  0.8185

 Free energy of the ion-electron system (eV)
  ---------------------------------------------------
  alpha Z        PSCENC =      1289.16975503
  Ewald energy   TEWEN  =    -29015.75324908
  -Hartree energ DENC   =    -11822.21770229
  -exchange      EXHF   =         0.00000000
  -V(xc)+E(xc)   XCENC  =      1248.68204149
  PAW double counting   =     36031.77320861   -35425.60960451
  entropy T*S    EENTRO =        -0.00000043
  eigenvalues    EBANDS =     -2856.41264380
  atomic energy  EATOM  =     40341.65184589
  Solvation  Ediel_sol  =         0.00000000
  ---------------------------------------------------
  free energy    TOTEN  =      -208.71634909 eV

  energy without entropy =     -208.71634866  energy(sigma->0) =     -208.71634887


--------------------------------------------------------------------------------------------------------




--------------------------------------- Iteration      1(  16)  ---------------------------------------


    POTLOK:  cpu time      0.1765: real time      0.1766
    SETDIJ:  cpu time      0.6565: real time      0.6566
     EDDAV:  cpu time     36.9058: real time     36.9066
       DOS:  cpu time      0.0019: real time      0.0020
    CHARGE:  cpu time      1.2524: real time      1.2525
    MIXING:  cpu time      0.0069: real time      0.0069
    --------------------------------------------
      LOOP:  cpu time     39.0000: real time     39.0011

 eigenvalue-minimisations  :  6456
 total energy-change (2. order) : 0.4106792E-05  (-0.5312446E-06)
 number of electron     384.0000000 magnetization 
 augmentation part       95.0126513 magnetization 

 Broyden mixing:
  rms(total) = 0.15169E-02    rms(broyden)= 0.15167E-02
  rms(prec ) = 0.17387E-02
  weight for this iteration     100.00

 eigenvalues of (default mixing * dielectric matrix)
  average eigenvalue GAMMA=   1.3871
  2.7738  2.5058  1.8182  1.8182  0.8982  0.8982  0.8314  0.8314  0.9716  0.9716
  0.9395

 Free energy of the ion-electron system (eV)
  ---------------------------------------------------
  alpha Z        PSCENC =      1289.16975503
  Ewald energy   TEWEN  =    -29015.75324908
  -Hartree energ DENC   =    -11822.18741607
  -exchange      EXHF   =         0.00000000
  -V(xc)+E(xc)   XCENC  =      1248.67979108
  PAW double counting   =     36031.20400570   -35425.02691410
  entropy T*S    EENTRO =        -0.00000043
[...]
    168       3.9326      2.00000
    169       4.4178      2.00000
    170       4.4190      2.00000
    171       4.4415      2.00000
    172       4.4415      2.00000
    173       4.5769      2.00000
    174       4.5816      2.00000
    175       4.5971      2.00000
    176       4.5971      2.00000
    177       4.6765      2.00000
    178       4.6765      2.00000
    179       4.6953      2.00000
    180       4.7042      2.00000
    181       5.0757      2.00000
    182       5.0792      2.00000
    183       5.0792      2.00000
    184       5.1000      2.00000
    185       5.4907      2.00000
    186       5.4907      2.00000
    187       5.5015      2.00000
    188       5.5174      2.00000
    189       5.5923      2.00000
    190       5.5923      2.00000
    191       5.6029      2.00000
    192       5.6151      2.00000
    193       7.5938      0.00000
    194       7.6173      0.00000
    195       7.6173      0.00000
    196       7.6501      0.00000
    197       8.3244      0.00000
    198       8.3536      0.00000
    199       8.3536      0.00000
    200       8.3855      0.00000
    201       8.8459      0.00000
    202       8.8566      0.00000
    203       8.8757      0.00000
    204       8.8757      0.00000
    205       9.1466      0.00000
    206       9.1599      0.00000
    207       9.1864      0.00000
    208       9.1864      0.00000
    209       9.2783      0.00000
    210       9.2783      0.00000
    211       9.3022      0.00000
    212       9.3320      0.00000
    213       9.3658      0.00000
    214       9.3658      0.00000
    215       9.3756      0.00000
    216       9.4001      0.00000
    217      10.1382      0.00000
    218      10.1382      0.00000
    219      10.1504      0.00000
    220      10.1662      0.00000
    221      10.2126      0.00000
    222      10.2126      0.00000
    223      10.2145      0.00000
    224      10.2275      0.00000
    225      10.8119      0.00000
    226      10.8119      0.00000
    227      10.8130      0.00000
    228      10.8943      0.00000
    229      10.8990      0.00000
    230      10.8995      0.00000
    231      10.9011      0.00000
    232      10.9015      0.00000


--------------------------------------------------------------------------------------------------------


 soft charge-density along one line, spin component           1
         0         1         2         3         4         5         6         7         8         9
 total charge-density along one line
 
 pseudopotential strength for first ion, spin component:           1
-17.988   0.001   0.001   0.001  -0.000   4.110  -0.000  -0.000
  0.001 -17.974   0.001  -0.001  -0.001  -0.000   4.105  -0.000
  0.001   0.001 -17.998   0.001  -0.000  -0.000  -0.000   4.118
  0.001  -0.001   0.001 -17.974   0.001  -0.000   0.000  -0.000
 -0.000  -0.001  -0.000   0.001 -17.970   0.000   0.001   0.000
  4.110  -0.000  -0.000  -0.000   0.000   5.725   0.000   0.000
 -0.000   4.105  -0.000   0.000   0.001   0.000   5.726   0.000
 -0.000  -0.000   4.118  -0.000   0.000   0.000   0.000   5.725
 -0.000   0.000  -0.000   4.105  -0.001   0.000  -0.000   0.000
  0.000   0.001   0.000  -0.001   4.101   0.000  -0.000   0.000
 -0.000   0.000   0.004   0.000  -0.000   0.000  -0.000   0.005
  0.000  -0.000  -0.005  -0.000   0.000  -0.000   0.000  -0.006
  0.000  -0.017  -0.000  -0.000  -0.000   0.000   0.003   0.000
 -0.000   0.000  -0.019   0.000  -0.000  -0.000   0.000   0.002
  0.000  -0.000  -0.000  -0.017   0.000   0.000  -0.000   0.000
  0.000  -0.028  -0.000  -0.000  -0.000   0.000   0.003   0.000
 -0.000   0.000  -0.030   0.000  -0.000  -0.000   0.000  -0.001
  0.000  -0.000  -0.000  -0.028   0.000   0.000  -0.000   0.000
 total augmentation occupancy for first ion, spin component:           1
  1.998   0.000   0.000   0.000   0.000  -0.006   0.000   0.000   0.000   0.000  -0.000  -0.000  -0.000  -0.000  -0.000   0.000
  0.000   1.998  -0.000  -0.000   0.000   0.000  -0.006   0.000  -0.000  -0.000   0.000   0.000   0.034   0.000  -0.000  -0.012
  0.000  -0.000   1.999  -0.000  -0.000   0.000   0.000  -0.003   0.000   0.000   0.001   0.000   0.000   0.031   0.000  -0.000
  0.000  -0.000  -0.000   1.998  -0.000   0.000  -0.000   0.000  -0.006   0.000   0.000   0.000  -0.000   0.000   0.034   0.000
  0.000   0.000  -0.000  -0.000   1.997   0.000  -0.000   0.000   0.000  -0.008   0.000   0.000   0.000   0.000  -0.000  -0.000
 -0.006   0.000   0.000   0.000   0.000   0.018   0.000   0.000   0.000   0.000  -0.000  -0.000   0.002  -0.001   0.002  -0.000
  0.000  -0.006   0.000  -0.000  -0.000   0.000   0.041   0.000  -0.000  -0.000   0.000   0.001  -0.078   0.000  -0.002   0.011
  0.000   0.000  -0.003   0.000   0.000   0.000   0.000   0.014   0.000  -0.000   0.012  -0.005  -0.001   0.008  -0.001   0.000
  0.000  -0.000   0.000  -0.006   0.000   0.000  -0.000   0.000   0.041   0.000   0.000   0.001  -0.002   0.000  -0.078   0.000
  0.000  -0.000   0.000   0.000  -0.008   0.000  -0.000  -0.000   0.000   0.049   0.000  -0.000   0.001   0.000  -0.001  -0.000
 -0.000   0.000   0.001   0.000   0.000  -0.000   0.000   0.012   0.000   0.000   2.044  -0.029  -0.000   0.164  -0.000  -0.000
 -0.000   0.000   0.000   0.000   0.000  -0.000   0.001  -0.005   0.001  -0.000  -0.029   0.029   0.001  -0.074   0.001   0.000
 -0.000   0.034   0.000  -0.000   0.000   0.002  -0.078  -0.001  -0.002   0.001  -0.000   0.001   0.864   0.006  -0.005  -0.075
 -0.000   0.000   0.031   0.000   0.000  -0.001   0.000   0.008   0.000   0.000   0.164  -0.074   0.006   0.927   0.006  -0.001
 -0.000  -0.000   0.000   0.034  -0.000   0.002  -0.002  -0.001  -0.078  -0.001  -0.000   0.001  -0.005   0.006   0.864   0.000
  0.000  -0.012  -0.000   0.000  -0.000  -0.000   0.011   0.000   0.000  -0.000  -0.000   0.000  -0.075  -0.001   0.000   0.008
  0.000   0.000  -0.019   0.000  -0.000   0.000   0.000  -0.000   0.000   0.000  -0.012   0.007  -0.001  -0.075  -0.001   0.000
  0.000   0.000  -0.000  -0.012   0.000  -0.000   0.000   0.000   0.011   0.000  -0.000   0.000   0.000  -0.001  -0.075  -0.000


------------------------ aborting loop because EDIFF is reached ----------------------------------------


    CHARGE:  cpu time      1.2534: real time      1.2538
    FORLOC:  cpu time      0.0161: real time      0.0161
    FORNL :  cpu time      6.0369: real time      6.0418
    STRESS:  cpu time     19.8366: real time     19.8394
    FORCOR:  cpu time      0.1773: real time      0.1776
    FORHAR:  cpu time      0.0585: real time      0.0585
    MIXING:  cpu time      0.0048: real time      0.0048
    OFIELD:  cpu time      0.0001: real time      0.0001

  FORCE on cell =-STRESS in cart. coord.  units (eV):
  Direction    XX          YY          ZZ          XY          YZ          ZX
  --------------------------------------------------------------------------------------
  Alpha Z  1289.16976  1289.16976  1289.16976
  Ewald   -7774.28899 -7774.28899-13467.28623    -0.00000     0.00000    -0.00000
  Hartree  5595.75080  5595.75080   630.64303    -0.00000    -0.00000    -0.00000
  E(xc)   -1823.33349 -1823.33349 -1825.20694    -0.00000     0.00000    -0.00000
  Local   -5980.51672 -5980.51672  4684.41634     0.00000     0.00000    -0.00000
  n-local  1571.53536  1579.93360  1579.89337     0.40969    -0.05743     0.10345
  augment  2176.33730  2176.33730  2161.36015    -0.00000     0.00000     0.00000
  Kinetic  4924.97010  4933.91580  4938.22301    -3.35464     0.44563    -0.49947
  Fock        0.00000     0.00000     0.00000     0.00000     0.00000     0.00000
  -------------------------------------------------------------------------------------
  Total     -11.70390   -11.70390    -8.78751     0.00000     0.00000     0.00000
  in kB     -23.93111   -23.93111   -17.96793     0.00000     0.00000     0.00000
  external pressure =      -21.94 kB  Pullay stress =        0.00 kB


 VOLUME and BASIS-vectors are now :
 -----------------------------------------------------------------------------
  energy-cutoff  :      520.00
  volume of cell :      783.57
      direct lattice vectors                 reciprocal lattice vectors
     7.918560639  0.000000000  0.000000000     0.126285577  0.000000000  0.000000000
     0.000000000  7.918560639  0.000000000     0.000000000  0.126285577  0.000000000
     0.000000000  0.000000000 12.496428824     0.000000000  0.000000000  0.080022862

  length of vectors
     7.918560639  7.918560639 12.496428824     0.126285577  0.126285577  0.080022862


 FORCES acting on ions
    electron-ion (+dipol)            ewald-force                    non-local-force                 convergence-correction
 -----------------------------------------------------------------------------------------------
   -.565E+01 -.565E+01 -.443E+03   0.556E+01 0.556E+01 0.454E+03   0.917E-01 0.917E-01 -.106E+02   -.931E-07 -.931E-07 -.374E-06
   0.565E+01 -.565E+01 -.443E+03   -.556E+01 0.556E+01 0.454E+03   -.917E-01 0.917E-01 -.106E+02   0.931E-07 -.931E-07 -.374E-06
   -.565E+01 0.565E+01 -.443E+03   0.556E+01 -.556E+01 0.454E+03   0.917E-01 -.917E-01 -.106E+02   -.931E-07 0.931E-07 -.374E-06
   0.565E+01 0.565E+01 -.443E+03   -.556E+01 -.556E+01 0.454E+03   -.917E-01 -.917E-01 -.106E+02   0.931E-07 0.931E-07 -.374E-06
   -.242E-13 -.436E-11 0.473E+03   -.171E-12 -.568E-13 -.484E+03   -.106E-17 0.148E-18 0.104E+02   -.109E-11 -.453E-11 0.357E-06
   0.775E-12 -.255E-12 0.472E+03   -.114E-12 -.817E-13 -.483E+03   -.461E-19 0.300E-18 0.105E+02   0.981E-12 -.472E-11 0.208E-06
   -.405E-13 0.409E-12 0.472E+03   0.000E+00 0.284E-13 -.483E+03   -.735E-18 -.472E-18 0.105E+02   -.460E-11 0.479E-11 0.208E-06
   0.707E-12 0.695E-11 0.473E+03   -.853E-13 -.551E-13 -.484E+03   0.821E-18 0.109E-17 0.106E+02   0.447E-11 0.237E-11 -.281E-06
   0.998E-14 0.563E-11 -.473E+03   -.114E-12 0.000E+00 0.484E+03   0.729E-18 0.241E-18 -.104E+02   -.464E-11 0.147E-12 -.357E-06
   0.836E-12 0.176E-11 -.472E+03   -.853E-13 -.320E-13 0.483E+03   0.559E-19 0.295E-18 -.105E+02   0.423E-11 0.265E-11 -.208E-06
   -.340E-14 0.156E-11 -.472E+03   -.284E-13 0.000E+00 0.483E+03   0.152E-18 -.446E-18 -.105E+02   -.491E-11 0.148E-11 -.208E-06
   0.826E-12 0.316E-11 -.473E+03   0.114E-12 0.107E-12 0.484E+03   -.861E-18 0.222E-18 -.106E+02   0.454E-11 -.977E-12 0.281E-06
   -.565E+01 -.565E+01 0.443E+03   0.556E+01 0.556E+01 -.454E+03   0.917E-01 0.917E-01 0.106E+02   -.931E-07 -.931E-07 0.374E-06
   0.565E+01 -.565E+01 0.443E+03   -.556E+01 0.556E+01 -.454E+03   -.917E-01 0.917E-01 0.106E+02   0.931E-07 -.931E-07 0.374E-06
   -.565E+01 0.565E+01 0.443E+03   0.556E+01 -.556E+01 -.454E+03   0.917E-01 -.917E-01 0.106E+02   -.931E-07 0.931E-07 0.374E-06
   0.565E+01 0.565E+01 0.443E+03   -.556E+01 -.556E+01 -.454E+03   -.917E-01 -.917E-01 0.106E+02   0.931E-07 0.931E-07 0.374E-06
   0.316E-13 0.159E-13 0.789E-12   0.114E-12 0.568E-13 0.710E-14   -.490E-26 -.919E-26 -.361E-26   -.223E-11 0.853E-12 0.201E-13
   0.696E-14 0.436E-13 -.411E-13   0.568E-13 0.284E-13 -.905E-18   -.377E-26 0.750E-26 -.428E-26   0.177E-11 -.120E-11 0.129E-11
   0.318E-13 -.152E-11 -.181E-11   0.000E+00 0.000E+00 0.107E-13   0.380E-27 0.190E-26 -.522E-26   -.176E-11 -.934E-12 0.106E-11
   -.226E+01 -.226E+01 0.175E-07   0.228E+01 0.228E+01 0.350E-13   -.113E-01 -.113E-01 -.594E-20   0.100E-06 0.100E-06 0.262E-12
   0.226E+01 -.226E+01 0.903E-11   -.228E+01 0.228E+01 0.208E-13   0.113E-01 -.113E-01 0.852E-20   -.100E-06 0.100E-06 -.107E-11
   -.226E+01 0.226E+01 -.140E-11   0.228E+01 -.228E+01 -.432E-13   -.113E-01 0.113E-01 -.366E-20   0.100E-06 -.100E-06 0.130E-11
   0.226E+01 0.226E+01 -.175E-07   -.228E+01 -.228E+01 0.243E-13   0.113E-01 0.113E-01 0.371E-20   -.100E-06 -.100E-06 0.218E-11
   0.109E-13 -.201E+01 0.826E+01   -.284E-13 0.199E+01 -.841E+01   0.140E-18 0.187E-01 0.153E+00   0.184E-11 0.126E-05 0.219E-07
   0.234E-12 -.140E+01 0.395E+01   -.568E-13 0.136E+01 -.380E+01   0.384E-18 0.332E-01 -.150E+00   -.182E-11 0.603E-06 -.486E-06
   0.677E-14 0.201E+01 0.826E+01   -.426E-13 -.199E+01 -.841E+01   0.181E-18 -.187E-01 0.153E+00   0.805E-12 -.126E-05 0.219E-07
   0.234E-12 0.140E+01 0.395E+01   0.000E+00 -.136E+01 -.380E+01   0.107E-18 -.332E-01 -.150E+00   -.814E-12 -.603E-06 -.486E-06
   -.201E+01 0.346E-11 0.826E+01   0.199E+01 0.213E-13 -.841E+01   0.187E-01 0.291E-19 0.153E+00   0.126E-05 -.141E-11 0.219E-07
   0.201E+01 0.463E-11 0.826E+01   -.199E+01 -.284E-13 -.841E+01   -.187E-01 -.164E-18 0.153E+00   -.126E-05 -.202E-11 0.219E-07
   -.140E+01 -.158E-11 0.395E+01   0.136E+01 -.355E-14 -.380E+01   0.332E-01 -.330E-18 -.150E+00   0.603E-06 0.142E-11 -.486E-06
   0.140E+01 0.186E-11 0.395E+01   -.136E+01 -.426E-13 -.380E+01   -.332E-01 0.831E-20 -.150E+00   -.603E-06 0.148E-11 -.486E-06
   -.201E+01 0.246E-12 -.826E+01   0.199E+01 -.711E-14 0.841E+01   0.187E-01 0.174E-18 -.153E+00   0.126E-05 0.156E-11 -.219E-07
   0.201E+01 0.196E-11 -.826E+01   -.199E+01 -.142E-13 0.841E+01   -.187E-01 0.269E-19 -.153E+00   -.126E-05 0.296E-11 -.219E-07
   -.140E+01 -.159E-11 -.395E+01   0.136E+01 0.355E-13 0.380E+01   0.332E-01 -.147E-19 0.150E+00   0.603E-06 -.910E-12 0.486E-06
   0.140E+01 0.265E-12 -.395E+01   -.136E+01 0.284E-13 0.380E+01   -.332E-01 0.300E-18 0.150E+00   -.603E-06 0.286E-12 0.486E-06
   0.630E-13 -.201E+01 -.826E+01   -.284E-13 0.199E+01 0.841E+01   -.170E-18 0.187E-01 -.153E+00   -.553E-12 0.126E-05 -.219E-07
   0.316E-12 -.140E+01 -.395E+01   -.995E-13 0.136E+01 0.380E+01   -.133E-18 0.332E-01 0.150E+00   0.445E-12 0.603E-06 0.486E-06
   0.589E-13 0.201E+01 -.826E+01   -.568E-13 -.199E+01 0.841E+01   -.195E-18 -.187E-01 -.153E+00   -.806E-12 -.126E-05 -.219E-07
   0.322E-12 0.140E+01 -.395E+01   -.284E-13 -.136E+01 0.380E+01   -.349E-18 -.332E-01 0.150E+00   0.695E-12 -.603E-06 0.486E-06
   0.860E-14 0.950E-14 -.120E-12   -.568E-13 -.711E-13 -.568E-13   -.303E-26 -.232E-26 -.399E-27   0.230E-11 0.146E-11 0.690E-12
 -----------------------------------------------------------------------------------------------
   0.231E-10 0.350E-10 0.260E-09   0.853E-13 -.103E-12 -.270E-12   -.217E-16 -.208E-16 -.178E-14   -.187E-11 0.208E-12 -.338E-10
 
 
 POSITION                                       TOTAL-FORCE (eV/Angst)
 -----------------------------------------------------------------------------------
      1.97146      1.97146     10.65721        -0.000000     -0.000000      0.000004
      5.94710      1.97146     10.65721         0.000000     -0.000000      0.000004
      1.97146      5.94710     10.65721        -0.000000      0.000000      0.000004
      5.94710      5.94710     10.65721         0.000000      0.000000      0.000004
      0.00000      7.91856      8.09984         0.000000     -0.000000     -0.000008
      3.95928      0.00000      8.10993         0.000000     -0.000000     -0.000003
      0.00000      3.95928      8.10993         0.000000     -0.000000     -0.000003
      3.95928      3.95928      8.12140        -0.000000     -0.000000      0.000002
      0.00000      0.00000      4.39659        -0.000000     -0.000000      0.000008
      3.95928      7.91856      4.38650        -0.000000      0.000000      0.000003
      0.00000      3.95928      4.38650        -0.000000     -0.000000      0.000003
      3.95928      3.95928      4.37503         0.000000     -0.000000     -0.000002
      1.97146      1.97146      1.83922        -0.000000     -0.000000     -0.000004
      5.94710      1.97146      1.83922         0.000000     -0.000000     -0.000004
      1.97146      5.94710      1.83922        -0.000000      0.000000     -0.000004
      5.94710      5.94710      1.83922         0.000000      0.000000     -0.000004
      3.95928      0.00000     12.49643        -0.000000     -0.000000      0.000000
      0.00000      3.95928     12.49643        -0.000000     -0.000000      0.000000
      3.95928      3.95928     12.49643         0.000000      0.000000      0.000000
      1.97914      1.97914      6.24821        -0.000001     -0.000001      0.000000
      5.93942      1.97914      6.24821         0.000001     -0.000001      0.000000
      1.97914      5.93942      6.24821        -0.000001      0.000001      0.000000
      5.93942      5.93942      6.24821         0.000001      0.000001      0.000000
      0.00000      1.97648      9.37916         0.000000     -0.000007     -0.000002
      3.95928      1.97756      9.38886        -0.000000     -0.000005      0.000002
      0.00000      5.94208      9.37916         0.000000      0.000007     -0.000002
      3.95928      5.94100      9.38886         0.000000      0.000005      0.000002
      1.97648      7.91856      9.37916        -0.000007      0.000000     -0.000002
      5.94208      7.91856      9.37916         0.000007     -0.000000     -0.000002
      1.97756      3.95928      9.38886        -0.000005     -0.000000      0.000002
      5.94100      3.95928      9.38886         0.000005      0.000000      0.000002
      1.97648      0.00000      3.11727        -0.000007     -0.000000      0.000002
      5.94208      7.91856      3.11727         0.000007      0.000000      0.000002
      1.97756      3.95928      3.10757        -0.000005     -0.000000     -0.000002
      5.94100      3.95928      3.10757         0.000005     -0.000000     -0.000002
      0.00000      1.97648      3.11727        -0.000000     -0.000007      0.000002
      3.95928      1.97756      3.10757        -0.000000     -0.000005     -0.000002
      0.00000      5.94208      3.11727         0.000000      0.000007      0.000002
      3.95928      5.94100      3.10757         0.000000      0.000005     -0.000002
      0.00000      0.00000     12.49643         0.000000     -0.000000      0.000000
 -----------------------------------------------------------------------------------
    total drift:                                0.000000      0.000000      0.000000


--------------------------------------------------------------------------------------------------------



  FREE ENERGIE OF THE ION-ELECTRON SYSTEM (eV)
  ---------------------------------------------------
  free  energy   TOTEN  =      -208.71634134 eV

  energy  without entropy=     -208.71634090  energy(sigma->0) =     -208.71634112
 
 d Force = 0.1860168E-10[ 0.499E-11, 0.322E-10]  d Energy =-0.8394636E-09 0.858E-09
 d Force =-0.3642295E-03[-0.364E-03,-0.364E-03]  d Ewald  =-0.3642292E-03-0.371E-09


--------------------------------------------------------------------------------------------------------


    POTLOK:  cpu time      0.8326: real time      0.8328


--------------------------------------------------------------------------------------------------------




--------------------------------------------------------------------------------------------------------


  
 reached required accuracy - stopping structural energy minimisation
     LOOP+:  cpu time    154.2352: real time    154.2833
    4ORBIT:  cpu time      0.0000: real time      0.0000

 total amount of memory used by VASP MPI-rank0    96102. kBytes
=======================================================================

   base      :      30000. kBytes
   nonl-proj :      17762. kBytes
   fftplans  :      13006. kBytes
   grid      :       8308. kBytes
   one-center:         77. kBytes
   wavefun   :      26949. kBytes
 
  
  
 General timing and accounting informations for this job:
 ========================================================
  
                  Total CPU time used (sec):     1440.845
                            User time (sec):     1433.156
                          System time (sec):        7.689
                         Elapsed time (sec):     1441.245
  
                   Maximum memory used (kb):      198592.
                   Average memory used (kb):          N/A
  
                          Minor page faults:        36157
                          Major page faults:            8
                 Voluntary context switches:          154
