<?xml version="1.0" encoding="ISO-8859-1"?>
<modeling>
 <generator>
  <i name="program" type="string">vasp </i>
  <i name="version" type="string">6.4.3  </i>
  <i name="subversion" type="string">19Mar24 (build Apr 09 2025 20:43:19) complex                          parallel </i>
  <i name="platform" type="string">LinuxIFC </i>
  <i name="date" type="string">2025 04 14 </i>
  <i name="time" type="string">05:35:18 </i>
 </generator>
 <incar>
  <i type="string" name="PREC">Accurate</i>
  <i type="int" name="IALGO">    38</i>
  <i type="logical" name="ADDGRID"> T  </i>
  <i type="int" name="NELMIN">     5</i>
  <i type="int" name="IBRION">     2</i>
  <i name="EDIFF">      0.00000001</i>
  <i name="EDIFFG">     -0.00001000</i>
  <i type="int" name="NSW">   100</i>
  <i type="int" name="ISIF">     2</i>
  <i name="ENCUT">    520.00000000</i>
  <i type="logical" name="LREAL"> F  </i>
  <i type="int" name="ISMEAR">     0</i>
  <i name="SIGMA">      0.05000000</i>
  <i type="logical" name="LWAVE"> F  </i>
  <i type="logical" name="LCHARG"> F  </i>
 </incar>
 <primitive_cell>
  <structure name="primitive_cell" >
   <crystal>
    <varray name="basis" >
     <v>       7.91856064       0.00000000       0.00000000 </v>
     <v>       0.00000000       7.91856064       0.00000000 </v>
     <v>       0.00000000       0.00000000      12.49642882 </v>
    </varray>
    <i name="volume">    783.57110688 </i>
    <varray name="rec_basis" >
     <v>       0.12628558       0.00000000       0.00000000 </v>
     <v>       0.00000000       0.12628558       0.00000000 </v>
     <v>       0.00000000       0.00000000       0.08002286 </v>
    </varray>
   </crystal>
   <varray name="positions" >
    <v>       0.24896654       0.24896654       0.85282021 </v>
    <v>       0.75103346       0.24896654       0.85282021 </v>
    <v>       0.24896654       0.75103346       0.85282021 </v>
    <v>       0.75103346       0.75103346       0.85282021 </v>
    <v>       0.00000000       0.00000000       0.64817251 </v>
    <v>       0.50000000       0.00000000       0.64898001 </v>
    <v>       0.00000000       0.50000000       0.64898001 </v>
    <v>       0.50000000       0.50000000       0.64989744 </v>
    <v>       0.00000000       0.00000000       0.35182749 </v>
    <v>       0.50000000       0.00000000       0.35101999 </v>
    <v>       0.00000000       0.50000000       0.35101999 </v>
    <v>       0.50000000       0.50000000       0.35010256 </v>
    <v>       0.24896654       0.24896654       0.14717979 </v>
    <v>       0.75103346       0.24896654       0.14717979 </v>
    <v>       0.24896654       0.75103346       0.14717979 </v>
    <v>       0.75103346       0.75103346       0.14717979 </v>
    <v>       0.50000000       0.00000000       0.00000000 </v>
    <v>       0.00000000       0.50000000       0.00000000 </v>
    <v>       0.50000000       0.50000000       0.00000000 </v>
    <v>       0.24993716       0.24993716       0.50000000 </v>
    <v>       0.75006284       0.24993716       0.50000000 </v>
    <v>       0.24993716       0.75006284       0.50000000 </v>
    <v>       0.75006284       0.75006284       0.50000000 </v>
    <v>       0.00000000       0.24960066       0.75054733 </v>
    <v>       0.50000000       0.24973705       0.75132359 </v>
    <v>       0.00000000       0.75039934       0.75054733 </v>
    <v>       0.50000000       0.75026295       0.75132359 </v>
    <v>       0.24960066       0.00000000       0.75054733 </v>
    <v>       0.75039934       0.00000000       0.75054733 </v>
    <v>       0.24973705       0.50000000       0.75132359 </v>
    <v>       0.75026295       0.50000000       0.75132359 </v>
    <v>       0.24960066       0.00000000       0.24945267 </v>
    <v>       0.75039934       0.00000000       0.24945267 </v>
    <v>       0.24973705       0.50000000       0.24867641 </v>
    <v>       0.75026295       0.50000000       0.24867641 </v>
    <v>       0.00000000       0.24960066       0.24945267 </v>
    <v>       0.50000000       0.24973705       0.24867641 </v>
    <v>       0.00000000       0.75039934       0.24945267 </v>
    <v>       0.50000000       0.75026295       0.24867641 </v>
    <v>       0.00000000       0.00000000       0.00000000 </v>
   </varray>
  </structure>
  <varray name="primitive_index" >
   <v type="int" >        1 </v>
   <v type="int" >        2 </v>
   <v type="int" >        3 </v>
   <v type="int" >        4 </v>
   <v type="int" >        5 </v>
   <v type="int" >        6 </v>
   <v type="int" >        7 </v>
   <v type="int" >        8 </v>
   <v type="int" >        9 </v>
   <v type="int" >       10 </v>
   <v type="int" >       11 </v>
   <v type="int" >       12 </v>
   <v type="int" >       13 </v>
   <v type="int" >       14 </v>
   <v type="int" >       15 </v>
   <v type="int" >       16 </v>
   <v type="int" >       17 </v>
   <v type="int" >       18 </v>
   <v type="int" >       19 </v>
   <v type="int" >       20 </v>
   <v type="int" >       21 </v>
   <v type="int" >       22 </v>
   <v type="int" >       23 </v>
   <v type="int" >       24 </v>
   <v type="int" >       25 </v>
   <v type="int" >       26 </v>
   <v type="int" >       27 </v>
   <v type="int" >       28 </v>
   <v type="int" >       29 </v>
   <v type="int" >       30 </v>
   <v type="int" >       31 </v>
   <v type="int" >       32 </v>
   <v type="int" >       33 </v>
   <v type="int" >       34 </v>
   <v type="int" >       35 </v>
   <v type="int" >       36 </v>
   <v type="int" >       37 </v>
   <v type="int" >       38 </v>
   <v type="int" >       39 </v>
   <v type="int" >       40 </v>
  </varray>
 </primitive_cell>
 <kpoints>
  <generation param="Gamma">
   <v type="int" name="divisions">       4        4        3 </v>
   <v name="usershift">      0.00000000       0.00000000       0.00000000 </v>
   <v name="genvec1">      0.25000000       0.00000000       0.00000000 </v>
   <v name="genvec2">      0.00000000       0.25000000       0.00000000 </v>
   <v name="genvec3">      0.00000000       0.00000000       0.33333333 </v>
   <v name="shift">      0.00000000       0.00000000       0.00000000 </v>
  </generation>
  <varray name="kpointlist" >
   <v>       0.00000000       0.00000000       0.00000000 </v>
   <v>       0.25000000       0.00000000       0.00000000 </v>
   <v>       0.50000000       0.00000000       0.00000000 </v>
   <v>       0.25000000       0.25000000       0.00000000 </v>
   <v>       0.50000000       0.25000000       0.00000000 </v>
   <v>       0.50000000       0.50000000       0.00000000 </v>
   <v>       0.00000000       0.00000000       0.33333333 </v>
   <v>       0.25000000       0.00000000       0.33333333 </v>
   <v>       0.50000000       0.00000000       0.33333333 </v>
   <v>       0.25000000       0.25000000       0.33333333 </v>
   <v>       0.50000000       0.25000000       0.33333333 </v>
   <v>       0.50000000       0.50000000       0.33333333 </v>
  </varray>
  <varray name="weights" >
   <v>       0.02083333 </v>
   <v>       0.08333333 </v>
   <v>       0.04166667 </v>
   <v>       0.08333333 </v>
   <v>       0.08333333 </v>
   <v>       0.02083333 </v>
   <v>       0.04166667 </v>
   <v>       0.16666667 </v>
   <v>       0.08333333 </v>
   <v>       0.16666667 </v>
   <v>       0.16666667 </v>
   <v>       0.04166667 </v>
  </varray>
 </kpoints>
 <parameters>
  <separator name="general" >
   <i type="string" name="SYSTEM">unknown system</i>
   <i type="logical" name="LCOMPAT"> F  </i>
  </separator>
  <separator name="electronic" >
   <i type="string" name="PREC">accura</i>
   <i name="ENMAX">    520.00000000</i>
   <i name="ENAUG">    605.39200000</i>
   <i name="EDIFF">      0.00000001</i>
   <i type="int" name="IALGO">    38</i>
   <i type="int" name="IWAVPR">    11</i>
   <i type="int" name="NBANDS">   232</i>
   <i type="int" name="NBANDSLOW">    -1</i>
   <i type="int" name="NBANDSHIGH">    -1</i>
   <i name="NELECT">    384.00000000</i>
   <i type="int" name="TURBO">     0</i>
   <i type="int" name="IRESTART">     0</i>
   <i type="int" name="NREBOOT">     0</i>
   <i type="int" name="NMIN">     0</i>
   <i name="EREF">      0.00000000</i>
   <separator name="electronic smearing" >
    <i type="int" name="ISMEAR">     0</i>
    <i name="SIGMA">      0.05000000</i>
    <i name="KSPACING">      0.50000000</i>
    <i type="logical" name="KGAMMA"> T  </i>
    <i type="logical" name="KBLOWUP"> T  </i>
   </separator>
   <separator name="electronic projectors" >
    <i type="logical" name="LREAL"> F  </i>
    <v name="ROPT">      0.00000000      0.00000000      0.00000000      0.00000000</v>
    <i type="int" name="LMAXPAW">  -100</i>
    <i type="int" name="LMAXMIX">     2</i>
    <i type="logical" name="NLSPLINE"> F  </i>
   </separator>
   <separator name="electronic startup" >
    <i type="int" name="ISTART">     0</i>
    <i type="int" name="ICHARG">     2</i>
    <i type="int" name="INIWAV">     1</i>
   </separator>
   <separator name="electronic spin" >
    <i type="int" name="ISPIN">     1</i>
    <i type="logical" name="LNONCOLLINEAR"> F  </i>
    <v name="MAGMOM">      1.00000000      1.00000000      1.00000000      1.00000000      1.00000000      1.00000000      1.00000000      1.00000000      1.00000000      1.00000000      1.00000000      1.00000000      1.00000000      1.00000000      1.00000000      1.00000000      1.00000000      1.00000000      1.00000000      1.00000000
      1.00000000      1.00000000      1.00000000      1.00000000      1.00000000      1.00000000      1.00000000      1.00000000      1.00000000      1.00000000      1.00000000      1.00000000      1.00000000      1.00000000      1.00000000      1.00000000      1.00000000      1.00000000      1.00000000      1.00000000
</v>
    <i name="NUPDOWN">     -1.00000000</i>
    <i type="logical" name="LSORBIT"> F  </i>
    <v name="SAXIS">      0.00000000      0.00000000      1.00000000</v>
    <i type="logical" name="LSPIRAL"> F  </i>
    <v name="QSPIRAL">      0.00000000      0.00000000      0.00000000</v>
    <i type="logical" name="LZEROZ"> F  </i>
   </separator>
   <separator name="electronic exchange-correlation" >
    <i type="logical" name="LASPH"> F  </i>
   </separator>
   <separator name="electronic convergence" >
    <i type="int" name="NELM">    60</i>
    <i type="int" name="NELMDL">    -5</i>
    <i type="int" name="NELMIN">     5</i>
    <i name="ENINI">    520.00000000</i>
    <separator name="electronic convergence detail" >
     <i type="logical" name="LDIAG"> T  </i>
     <i type="logical" name="LSUBROT"> F  </i>
     <i name="WEIMIN">      0.00100000</i>
     <i name="EBREAK">      0.00000000</i>
     <i name="DEPER">      0.30000000</i>
     <i type="int" name="NRMM">     4</i>
     <i name="TIME">      0.40000000</i>
    </separator>
   </separator>
   <separator name="electronic mixer" >
    <i name="AMIX">      0.40000000</i>
    <i name="BMIX">      1.00000000</i>
    <i name="AMIN">      0.10000000</i>
    <i name="AMIX_MAG">      1.60000000</i>
    <i name="BMIX_MAG">      1.00000000</i>
    <separator name="electronic mixer details" >
     <i type="int" name="IMIX">     4</i>
     <i type="logical" name="MIXFIRST"> F  </i>
     <i type="int" name="MAXMIX">   -45</i>
     <i name="WC">    100.00000000</i>
     <i type="int" name="INIMIX">     1</i>
     <i type="int" name="MIXPRE">     1</i>
     <i type="int" name="MREMOVE">     5</i>
    </separator>
   </separator>
   <separator name="electronic dipolcorrection" >
    <i type="logical" name="LDIPOL"> F  </i>
    <i type="logical" name="LMONO"> F  </i>
    <i type="int" name="IDIPOL">     0</i>
    <i name="EPSILON">      1.00000000</i>
    <v name="DIPOL">   -100.00000000   -100.00000000   -100.00000000</v>
    <i name="EFIELD">      0.00000000</i>
    <i type="logical" name="LVACPOTAV"> F  </i>
   </separator>
  </separator>
  <separator name="grids" >
   <i type="int" name="NGX">    60</i>
   <i type="int" name="NGY">    60</i>
   <i type="int" name="NGZ">    96</i>
   <i type="int" name="NGXF">   120</i>
   <i type="int" name="NGYF">   120</i>
   <i type="int" name="NGZF">   192</i>
   <i type="logical" name="ADDGRID"> T  </i>
  </separator>
  <separator name="ionic" >
   <i type="int" name="NSW">   100</i>
   <i type="int" name="IBRION">     2</i>
   <i type="int" name="MDALGO">     0</i>
   <i type="int" name="ISIF">     2</i>
   <i name="PSTRESS">      0.00000000</i>
   <i name="EDIFFG">     -0.00001000</i>
   <i type="int" name="NFREE">     1</i>
   <i name="POTIM">      0.50000000</i>
   <i name="SMASS">     -3.00000000</i>
   <i name="SCALEE">      1.00000000</i>
  </separator>
  <separator name="ionic md" >
   <i name="TEBEG">      0.00010000</i>
   <i name="TEEND">      0.00010000</i>
   <i type="int" name="NBLOCK">     1</i>
   <i type="int" name="KBLOCK">   100</i>
   <i type="int" name="NPACO">   256</i>
   <i name="APACO">     10.00000000</i>
  </separator>
  <separator name="symmetry" >
   <i type="int" name="ISYM">     2</i>
   <i name="SYMPREC">      0.00001000</i>
  </separator>
  <separator name="dos" >
   <i type="int" name="LORBIT">     0</i>
   <v name="RWIGS">     -1.00000000     -1.00000000     -1.00000000     -1.00000000</v>
   <i type="int" name="NEDOS">   301</i>
   <i name="EMIN">     10.00000000</i>
   <i name="EMAX">    -10.00000000</i>
   <i name="EFERMI">      0.00000000</i>
  </separator>
  <separator name="writing" >
   <i type="int" name="NWRITE">     2</i>
   <i type="logical" name="LWAVE"> F  </i>
   <i type="logical" name="LDOWNSAMPLE"> F  </i>
   <i type="logical" name="LCHARG"> F  </i>
   <i type="logical" name="LPARD"> F  </i>
   <i type="logical" name="LVTOT"> F  </i>
   <i type="logical" name="LVHAR"> F  </i>
   <i type="logical" name="LELF"> F  </i>
   <i type="logical" name="LOPTICS"> F  </i>
   <v name="STM">      0.00000000      0.00000000      0.00000000      0.00000000      0.00000000      0.00000000      0.00000000</v>
  </separator>
  <separator name="performance" >
   <i type="int" name="NPAR">     4</i>
   <i type="int" name="NSIM">     4</i>
   <i type="int" name="NBLK">    -1</i>
   <i type="logical" name="LPLANE"> T  </i>
   <i type="logical" name="LSCALAPACK"> T  </i>
   <i type="logical" name="LSCAAWARE"> F  </i>
   <i type="logical" name="LSCALU"> F  </i>
   <i type="logical" name="LASYNC"> F  </i>
   <i type="logical" name="LORBITALREAL"> F  </i>
  </separator>
  <separator name="miscellaneous" >
   <i type="int" name="IDIOT">     3</i>
   <i type="int" name="PHON_NSTRUCT">    -1</i>
   <i type="logical" name="LMUSIC"> F  </i>
   <v name="POMASS">    208.98000000     78.96000000     16.00000000     32.06600000</v>
   <v name="DARWINR">      0.00000000      0.00000000      0.00000000      0.00000000</v>
   <v name="DARWINV">      1.00000000      1.00000000      1.00000000      1.00000000</v>
   <i type="logical" name="LCORR"> T  </i>
  </separator>
  <i type="logical" name="GGA_COMPAT"> T  </i>
  <i type="logical" name="LBERRY"> F  </i>
  <i type="int" name="ICORELEVEL">     0</i>
  <i type="logical" name="LDAU"> F  </i>
  <i type="int" name="I_CONSTRAINED_M">     0</i>
  <separator name="electronic exchange-correlation" >
   <i type="string" name="GGA    ">PE</i>
   <i type="string" name="XC_C">1</i>
   <i type="int" name="VOSKOWN">     0</i>
   <i type="logical" name="LHFCALC"> F  </i>
   <i type="string" name="PRECFOCK"></i>
   <i type="logical" name="LSYMGRAD"> F  </i>
   <i type="logical" name="LHFONE"> F  </i>
   <i type="logical" name="LRHFCALC"> F  </i>
   <i type="logical" name="LTHOMAS"> F  </i>
   <i type="logical" name="LMODELHF"> F  </i>
   <i type="logical" name="LFOCKACE"> F  </i>
   <i name="ENCUT4O">     -1.00000000</i>
   <i type="int" name="EXXOEP">     0</i>
   <i type="int" name="FOURORBIT">     0</i>
   <i name="AEXX">      0.00000000</i>
   <i name="HFALPHA">      0.00000000</i>
   <i name="MCALPHA">      0.00000000</i>
   <i name="ALDAX">      1.00000000</i>
   <i name="AGGAX">      1.00000000</i>
   <i name="AMGGAX">      1.00000000</i>
   <i name="ALDAC">      1.00000000</i>
   <i name="AGGAC">      1.00000000</i>
   <i name="AMGGAC">      1.00000000</i>
   <i type="int" name="NKREDX">     1</i>
   <i type="int" name="NKREDY">     1</i>
   <i type="int" name="NKREDZ">     1</i>
   <i type="logical" name="SHIFTRED"> F  </i>
   <i type="logical" name="ODDONLY"> F  </i>
   <i type="logical" name="EVENONLY"> F  </i>
   <i type="int" name="LMAXFOCK">     0</i>
   <i type="int" name="NMAXFOCKAE">     0</i>
   <i type="logical" name="LFOCKAEDFT"> F  </i>
   <i name="HFSCREEN">      0.00000000</i>
   <i name="HFSCREENC">      0.00000000</i>
   <i type="int" name="NBANDSGWLOW">     0</i>
  </separator>
  <separator name="vdW DFT" >
   <i type="logical" name="LUSE_VDW"> F  </i>
   <i type="int" name="IVDW_NL">    -1</i>
   <i type="logical" name="LSPIN_VDW"> F  </i>
   <i name="ZAB_VDW">     -0.84910000</i>
   <i name="GAMMA_VDW">      1.39626340</i>
   <i name="ALPHA_VDW">      0.00000000</i>
   <i name="PARAM1">      0.12340000</i>
   <i name="PARAM2">      1.00000000</i>
   <i name="BPARAM">      6.30000000</i>
   <i name="CPARAM">      0.00930000</i>
  </separator>
  <separator name="model GW" >
   <i type="int" name="MODEL_GW">     0</i>
   <i name="MODEL_EPS0">     11.75356660</i>
   <i name="MODEL_ALPHA">      1.00000000</i>
  </separator>
  <separator name="linear response parameters" >
   <i type="logical" name="LEPSILON"> F  </i>
   <i type="logical" name="LRPA"> F  </i>
   <i type="logical" name="LNABLA"> F  </i>
   <i type="logical" name="LVEL"> F  </i>
   <i name="CSHIFT">      0.10000000</i>
   <i name="OMEGAMAX">     -1.00000000</i>
   <i name="DEG_THRESHOLD">      0.00200000</i>
   <i name="RTIME">     -0.10000000</i>
   <i name="WPLASMAI">      0.00000000</i>
   <v name="DFIELD">      0.00000000      0.00000000      0.00000000</v>
   <v name="WPLASMA">      0.00000000      0.00000000      0.00000000      0.00000000      0.00000000      0.00000000      0.00000000      0.00000000      0.00000000</v>
  </separator>
  <separator name="orbital magnetization" >
   <i type="logical" name="NUCIND"> F  </i>
   <v name="MAGPOS">      0.00000000      0.00000000      0.00000000</v>
   <i type="logical" name="LNICSALL"> T  </i>
   <i type="logical" name="ORBITALMAG"> F  </i>
   <i type="logical" name="LMAGBLOCH"> F  </i>
   <i type="logical" name="LCHIMAG"> F  </i>
   <i type="logical" name="LGAUGE"> T  </i>
   <i type="int" name="MAGATOM">     0</i>
   <v name="MAGDIPOL">      0.00000000      0.00000000      0.00000000</v>
   <v name="AVECCONST">      0.00000000      0.00000000      0.00000000</v>
  </separator>
  <separator name="response functions" >
   <i type="logical" name="LALL_IN_ONE"> F  </i>
   <i type="int" name="IALL_IN_ONE">    -1</i>
   <i type="int" name="NBANDS_WAVE">    -1</i>
   <i type="logical" name="LFINITE_TEMPERATURE"> F  </i>
   <i type="logical" name="LADDER"> F  </i>
   <i type="logical" name="LRPAFORCE"> F  </i>
   <i type="logical" name="LFXC"> F  </i>
   <i type="logical" name="LHARTREE"> T  </i>
   <i type="int" name="IBSE">     0</i>
   <v type="int" name="KPOINT">    -1     0     0     0</v>
   <i type="logical" name="LTCTC"> F  </i>
   <i type="logical" name="LTCTE"> F  </i>
   <i type="logical" name="LTETE"> F  </i>
   <i type="logical" name="LTRIPLET"> F  </i>
   <i type="logical" name="LFXCEPS"> F  </i>
   <i type="logical" name="LFXHEG"> F  </i>
   <i type="int" name="NATURALO">     2</i>
   <i type="logical" name="LHOLEGF"> F  </i>
   <i type="logical" name="L2ORDER"> F  </i>
   <i type="logical" name="LDMP1"> F  </i>
   <i type="logical" name="LMP2LT"> F  </i>
   <i type="logical" name="LSMP2LT"> F  </i>
   <i type="logical" name="LGWLF"> F  </i>
   <i name="ENCUTGW">     -1.60000002</i>
   <i name="ENCUTGWSOFT">     -1.60000002</i>
   <i name="ENCUTLF">     -1.00000000</i>
   <i type="logical" name="ESF_SPLINES"> F  </i>
   <i name="ESF_CONV">      0.01000000</i>
   <i type="int" name="ESF_NINTER">    15</i>
   <i type="int" name="LMAXMP2">    -1</i>
   <i name="SCISSOR">      0.00000000</i>
   <i type="int" name="NOMEGA">     0</i>
   <i type="int" name="NOMEGAR">     0</i>
   <i type="int" name="NBANDSGW">    -1</i>
   <i type="int" name="NBANDSO">    -1</i>
   <i type="int" name="NBANDSV">    -1</i>
   <i type="int" name="NELMGW">     1</i>
   <i type="int" name="NELMHF">     1</i>
   <i type="int" name="DIM">     3</i>
   <i type="int" name="IESPILON">     4</i>
   <i type="int" name="ANTIRES">     0</i>
   <i name="OMEGAMAX">    -30.00000000</i>
   <i name="OMEGAMIN">    -30.00000000</i>
   <i name="OMEGATL">   -200.00000000</i>
   <i type="int" name="OMEGAGRID">     0</i>
   <i name="CSHIFT">     -0.10000000</i>
   <i type="logical" name="LSELFENERGY"> F  </i>
   <i type="logical" name="LSPECTRAL"> F  </i>
   <i type="logical" name="LSPECTRALGW"> F  </i>
   <i type="logical" name="LSINGLES"> F  </i>
   <i type="logical" name="LFERMIGW"> F  </i>
   <i type="logical" name="ODDONLYGW"> F  </i>
   <i type="logical" name="EVENONLYGW"> F  </i>
   <i type="int" name="NKREDLFX">     1</i>
   <i type="int" name="NKREDLFY">     1</i>
   <i type="int" name="NKREDLFZ">     1</i>
   <i type="int" name="MAXMEM">  2800</i>
   <i type="int" name="TELESCOPE">     0</i>
   <i type="int" name="NTAUPAR">    -1</i>
   <i type="int" name="NOMEGAPAR">    -1</i>
   <i name="DAMP_NEWTON">      0.80000001</i>
   <i name="LAMBDA">      1.00000000</i>
  </separator>
  <separator name="External order field" >
   <i name="OFIELD_KAPPA">      0.00000000</i>
   <v name="OFIELD_K">      0.00000000      0.00000000      0.00000000</v>
   <i name="OFIELD_Q6_NEAR">      0.00000000</i>
   <i name="OFIELD_Q6_FAR">      0.00000000</i>
   <i name="OFIELD_A">      0.00000000</i>
  </separator>
  <separator name="optional k-points parameters" >
   <i type="int" name="KPOINTS_OPT_MODE">     1</i>
   <i type="logical" name="LKPOINTS_OPT"> F  </i>
  </separator>
 </parameters>
 <atominfo>
  <atoms>      40 </atoms>
  <types>       4 </types>
  <array name="atoms" >
   <dimension dim="1">ion</dimension>
   <field type="string">element</field>
   <field type="int">atomtype</field>
   <set>
    <rc><c>Bi</c><c>   1</c></rc>
    <rc><c>Bi</c><c>   1</c></rc>
    <rc><c>Bi</c><c>   1</c></rc>
    <rc><c>Bi</c><c>   1</c></rc>
    <rc><c>Bi</c><c>   1</c></rc>
    <rc><c>Bi</c><c>   1</c></rc>
    <rc><c>Bi</c><c>   1</c></rc>
    <rc><c>Bi</c><c>   1</c></rc>
    <rc><c>Bi</c><c>   1</c></rc>
    <rc><c>Bi</c><c>   1</c></rc>
    <rc><c>Bi</c><c>   1</c></rc>
    <rc><c>Bi</c><c>   1</c></rc>
    <rc><c>Bi</c><c>   1</c></rc>
    <rc><c>Bi</c><c>   1</c></rc>
    <rc><c>Bi</c><c>   1</c></rc>
    <rc><c>Bi</c><c>   1</c></rc>
    <rc><c>Se</c><c>   2</c></rc>
    <rc><c>Se</c><c>   2</c></rc>
    <rc><c>Se</c><c>   2</c></rc>
    <rc><c>Se</c><c>   2</c></rc>
    <rc><c>Se</c><c>   2</c></rc>
    <rc><c>Se</c><c>   2</c></rc>
    <rc><c>Se</c><c>   2</c></rc>
    <rc><c>O </c><c>   3</c></rc>
    <rc><c>O </c><c>   3</c></rc>
    <rc><c>O </c><c>   3</c></rc>
    <rc><c>O </c><c>   3</c></rc>
    <rc><c>O </c><c>   3</c></rc>
    <rc><c>O </c><c>   3</c></rc>
    <rc><c>O </c><c>   3</c></rc>
    <rc><c>O </c><c>   3</c></rc>
    <rc><c>O </c><c>   3</c></rc>
    <rc><c>O </c><c>   3</c></rc>
    <rc><c>O </c><c>   3</c></rc>
    <rc><c>O </c><c>   3</c></rc>
    <rc><c>O </c><c>   3</c></rc>
    <rc><c>O </c><c>   3</c></rc>
    <rc><c>O </c><c>   3</c></rc>
    <rc><c>O </c><c>   3</c></rc>
    <rc><c>S </c><c>   4</c></rc>
   </set>
  </array>
  <array name="atomtypes" >
   <dimension dim="1">type</dimension>
   <field type="int">atomspertype</field>
   <field type="string">element</field>
   <field>mass</field>
   <field>valence</field>
   <field type="string">pseudopotential</field>
   <set>
    <rc><c>  16</c><c>Bi</c><c>    208.98000000</c><c>     15.00000000</c><c>  PAW_PBE Bi_d 06Sep2000                </c></rc>
    <rc><c>   7</c><c>Se</c><c>     78.96000000</c><c>      6.00000000</c><c>  PAW_PBE Se 06Sep2000                  </c></rc>
    <rc><c>  16</c><c>O </c><c>     16.00000000</c><c>      6.00000000</c><c>  PAW_PBE O 08Apr2002                   </c></rc>
    <rc><c>   1</c><c>S </c><c>     32.06600000</c><c>      6.00000000</c><c>  PAW_PBE S 06Sep2000                   </c></rc>
   </set>
  </array>
 </atominfo>
 <structure name="initialpos" >
  <crystal>
   <varray name="basis" >
    <v>       7.91856064       0.00000000       0.00000000 </v>
    <v>       0.00000000       7.91856064       0.00000000 </v>
    <v>       0.00000000       0.00000000      12.49642882 </v>
   </varray>
   <i name="volume">    783.57110688 </i>
   <varray name="rec_basis" >
    <v>       0.12628558       0.00000000       0.00000000 </v>
    <v>       0.00000000       0.12628558       0.00000000 </v>
    <v>       0.00000000       0.00000000       0.08002286 </v>
   </varray>
  </crystal>
  <varray name="positions" >
   <v>       0.24896654       0.24896654       0.85282021 </v>
   <v>       0.75103346       0.24896654       0.85282021 </v>
   <v>       0.24896654       0.75103346       0.85282021 </v>
   <v>       0.75103346       0.75103346       0.85282021 </v>
   <v>       0.00000000       0.00000000       0.64817251 </v>
   <v>       0.50000000       0.00000000       0.64898001 </v>
   <v>       0.00000000       0.50000000       0.64898001 </v>
   <v>       0.50000000       0.50000000       0.64989744 </v>
   <v>       0.00000000       0.00000000       0.35182749 </v>
   <v>       0.50000000       0.00000000       0.35101999 </v>
   <v>       0.00000000       0.50000000       0.35101999 </v>
   <v>       0.50000000       0.50000000       0.35010256 </v>
   <v>       0.24896654       0.24896654       0.14717979 </v>
   <v>       0.75103346       0.24896654       0.14717979 </v>
   <v>       0.24896654       0.75103346       0.14717979 </v>
   <v>       0.75103346       0.75103346       0.14717979 </v>
   <v>       0.50000000       0.00000000       0.00000000 </v>
   <v>       0.00000000       0.50000000       0.00000000 </v>
   <v>       0.50000000       0.50000000       0.00000000 </v>
   <v>       0.24993716       0.24993716       0.50000000 </v>
   <v>       0.75006284       0.24993716       0.50000000 </v>
   <v>       0.24993716       0.75006284       0.50000000 </v>
   <v>       0.75006284       0.75006284       0.50000000 </v>
   <v>       0.00000000       0.24960066       0.75054733 </v>
   <v>       0.50000000       0.24973705       0.75132359 </v>
   <v>       0.00000000       0.75039934       0.75054733 </v>
   <v>       0.50000000       0.75026295       0.75132359 </v>
   <v>       0.24960066       0.00000000       0.75054733 </v>
   <v>       0.75039934       0.00000000       0.75054733 </v>
   <v>       0.24973705       0.50000000       0.75132359 </v>
   <v>       0.75026295       0.50000000       0.75132359 </v>
   <v>       0.24960066       0.00000000       0.24945267 </v>
   <v>       0.75039934       0.00000000       0.24945267 </v>
   <v>       0.24973705       0.50000000       0.24867641 </v>
   <v>       0.75026295       0.50000000       0.24867641 </v>
   <v>       0.00000000       0.24960066       0.24945267 </v>
   <v>       0.50000000       0.24973705       0.24867641 </v>
   <v>       0.00000000       0.75039934       0.24945267 </v>
   <v>       0.50000000       0.75026295       0.24867641 </v>
   <v>       0.00000000       0.00000000       0.00000000 </v>
  </varray>
 </structure>
 <calculation>
  <scstep>
   <time name="dav">   33.11   33.12</time>
   <time name="total">   33.94   33.96</time>
   <energy>
    <i name="alphaZ">   1289.16975503 </i>
    <i name="ewald"> -29015.75324908 </i>
    <i name="hartreedc"> -11667.52780919 </i>
    <i name="XCdc">   1231.83791260 </i>
    <i name="pawpsdc">  34040.00696010 </i>
    <i name="pawaedc"> -33495.80632930 </i>
    <i name="eentropy">     -0.00448991 </i>
    <i name="bandstr">   2837.33563493 </i>
    <i name="atom">  40341.65184589 </i>
    <i name="e_fr_energy">   5560.91023109 </i>
    <i name="e_wo_entrp">   5560.91472100 </i>
    <i name="e_0_energy">   5560.91247604 </i>
   </energy>
  </scstep>
  <scstep>
   <time name="dav">   33.20   33.24</time>
   <time name="total">   33.20   33.24</time>
   <energy>
    <i name="e_fr_energy">    934.80081078 </i>
    <i name="e_wo_entrp">    934.81392425 </i>
    <i name="e_0_energy">    934.80736752 </i>
   </energy>
  </scstep>
  <scstep>
   <time name="dav">   35.87   35.91</time>
   <time name="total">   35.88   35.91</time>
   <energy>
    <i name="e_fr_energy">   -116.96287195 </i>
    <i name="e_wo_entrp">   -116.96287195 </i>
    <i name="e_0_energy">   -116.96287195 </i>
   </energy>
  </scstep>
  <scstep>
   <time name="dav">   37.49   37.51</time>
   <time name="total">   37.50   37.52</time>
   <energy>
    <i name="e_fr_energy">   -237.98026938 </i>
    <i name="e_wo_entrp">   -237.98026938 </i>
    <i name="e_0_energy">   -237.98026938 </i>
   </energy>
  </scstep>
  <scstep>
   <time name="dav">   38.23   38.23</time>
   <time name="total">   39.47   39.47</time>
   <energy>
    <i name="e_fr_energy">   -243.64325391 </i>
    <i name="e_wo_entrp">   -243.64325391 </i>
    <i name="e_0_energy">   -243.64325391 </i>
   </energy>
  </scstep>
  <scstep>
   <time name="dav">   41.88   41.91</time>
   <time name="total">   43.97   44.01</time>
   <energy>
    <i name="e_fr_energy">   -209.05511695 </i>
    <i name="e_wo_entrp">   -209.05511695 </i>
    <i name="e_0_energy">   -209.05511695 </i>
   </energy>
  </scstep>
  <scstep>
   <time name="dav">   35.48   35.49</time>
   <time name="total">   37.58   37.59</time>
   <energy>
    <i name="e_fr_energy">   -208.64786628 </i>
    <i name="e_wo_entrp">   -208.64786626 </i>
    <i name="e_0_energy">   -208.64786627 </i>
   </energy>
  </scstep>
  <scstep>
   <time name="dav">   42.56   42.59</time>
   <time name="total">   44.65   44.68</time>
   <energy>
    <i name="e_fr_energy">   -208.79771218 </i>
    <i name="e_wo_entrp">   -208.79770636 </i>
    <i name="e_0_energy">   -208.79770927 </i>
   </energy>
  </scstep>
  <scstep>
   <time name="dav">   40.86   40.88</time>
   <time name="total">   42.95   42.97</time>
   <energy>
    <i name="e_fr_energy">   -208.72825170 </i>
    <i name="e_wo_entrp">   -208.72825164 </i>
    <i name="e_0_energy">   -208.72825167 </i>
   </energy>
  </scstep>
  <scstep>
   <time name="dav">   38.97   38.97</time>
   <time name="total">   41.06   41.07</time>
   <energy>
    <i name="e_fr_energy">   -208.71279775 </i>
    <i name="e_wo_entrp">   -208.71279721 </i>
    <i name="e_0_energy">   -208.71279748 </i>
   </energy>
  </scstep>
  <scstep>
   <time name="dav">   40.60   40.60</time>
   <time name="total">   42.69   42.70</time>
   <energy>
    <i name="e_fr_energy">   -208.71535015 </i>
    <i name="e_wo_entrp">   -208.71534964 </i>
    <i name="e_0_energy">   -208.71534990 </i>
   </energy>
  </scstep>
  <scstep>
   <time name="dav">   42.34   42.35</time>
   <time name="total">   44.44   44.45</time>
   <energy>
    <i name="e_fr_energy">   -208.71645537 </i>
    <i name="e_wo_entrp">   -208.71645495 </i>
    <i name="e_0_energy">   -208.71645516 </i>
   </energy>
  </scstep>
  <scstep>
   <time name="dav">   36.82   36.83</time>
   <time name="total">   38.92   38.92</time>
   <energy>
    <i name="e_fr_energy">   -208.71644779 </i>
    <i name="e_wo_entrp">   -208.71644739 </i>
    <i name="e_0_energy">   -208.71644759 </i>
   </energy>
  </scstep>
  <scstep>
   <time name="dav">   38.44   38.45</time>
   <time name="total">   40.54   40.55</time>
   <energy>
    <i name="e_fr_energy">   -208.71637043 </i>
    <i name="e_wo_entrp">   -208.71637001 </i>
    <i name="e_0_energy">   -208.71637022 </i>
   </energy>
  </scstep>
  <scstep>
   <time name="dav">   43.57   43.57</time>
   <time name="total">   45.67   45.67</time>
   <energy>
    <i name="e_fr_energy">   -208.71634909 </i>
    <i name="e_wo_entrp">   -208.71634866 </i>
    <i name="e_0_energy">   -208.71634887 </i>
   </energy>
  </scstep>
  <scstep>
   <time name="dav">   36.91   36.91</time>
   <time name="total">   39.00   39.00</time>
   <energy>
    <i name="e_fr_energy">   -208.71634498 </i>
    <i name="e_wo_entrp">   -208.71634455 </i>
    <i name="e_0_energy">   -208.71634476 </i>
   </energy>
  </scstep>
  <scstep>
   <time name="dav">   41.65   41.65</time>
   <time name="total">   43.75   43.75</time>
   <energy>
    <i name="e_fr_energy">   -208.71634098 </i>
    <i name="e_wo_entrp">   -208.71634054 </i>
    <i name="e_0_energy">   -208.71634076 </i>
   </energy>
  </scstep>
  <scstep>
   <time name="dav">   36.40   36.40</time>
   <time name="total">   38.49   38.49</time>
   <energy>
    <i name="e_fr_energy">   -208.71634088 </i>
    <i name="e_wo_entrp">   -208.71634045 </i>
    <i name="e_0_energy">   -208.71634067 </i>
   </energy>
  </scstep>
  <scstep>
   <time name="dav">   34.23   34.24</time>
   <time name="total">   36.32   36.34</time>
   <energy>
    <i name="e_fr_energy">   -208.71634112 </i>
    <i name="e_wo_entrp">   -208.71634069 </i>
    <i name="e_0_energy">   -208.71634091 </i>
   </energy>
  </scstep>
  <scstep>
   <time name="dav">   31.91   31.91</time>
   <time name="total">   34.01   34.01</time>
   <energy>
    <i name="e_fr_energy">   -208.71634123 </i>
    <i name="e_wo_entrp">   -208.71634079 </i>
    <i name="e_0_energy">   -208.71634101 </i>
   </energy>
  </scstep>
  <scstep>
   <time name="dav">   28.77   28.77</time>
   <time name="total">   30.87   30.87</time>
   <energy>
    <i name="e_fr_energy">   -208.71634134 </i>
    <i name="e_wo_entrp">   -208.71634090 </i>
    <i name="e_0_energy">   -208.71634112 </i>
   </energy>
  </scstep>
  <scstep>
   <time name="dav">   23.93   23.94</time>
   <time name="total">   26.03   26.04</time>
   <energy>
    <i name="e_fr_energy">   -208.71634136 </i>
    <i name="e_wo_entrp">   -208.71634092 </i>
    <i name="e_0_energy">   -208.71634114 </i>
   </energy>
  </scstep>
  <scstep>
   <time name="dav">   23.96   23.97</time>
   <time name="total">   26.05   26.06</time>
   <energy>
    <i name="e_fr_energy">   -208.71634135 </i>
    <i name="e_wo_entrp">   -208.71634091 </i>
    <i name="e_0_energy">   -208.71634113 </i>
   </energy>
  </scstep>
  <scstep>
   <time name="dav">   23.96   23.97</time>
   <time name="total">   26.06   26.07</time>
   <energy>
    <i name="e_fr_energy">   -208.71634133 </i>
    <i name="e_wo_entrp">   -208.71634090 </i>
    <i name="e_0_energy">   -208.71634112 </i>
   </energy>
  </scstep>
  <scstep>
   <time name="dav">   23.92   23.92</time>
   <time name="total">   24.75   24.76</time>
   <energy>
    <i name="alphaZ">   1289.16975503 </i>
    <i name="ewald"> -29015.75324908 </i>
    <i name="hartreedc"> -11822.14229929 </i>
    <i name="XCdc">   1248.67647953 </i>
    <i name="pawpsdc">  36030.41202520 </i>
    <i name="pawaedc"> -35424.22501072 </i>
    <i name="eentropy">     -0.00000044 </i>
    <i name="bandstr">  -2856.50588746 </i>
    <i name="atom">  40341.65184589 </i>
    <i name="e_fr_energy">   -208.71634133 </i>
    <i name="e_wo_entrp">   -208.71634090 </i>
    <i name="e_0_energy">   -208.71634112 </i>
   </energy>
  </scstep>
  <structure>
   <crystal>
    <varray name="basis" >
     <v>       7.91856064       0.00000000       0.00000000 </v>
     <v>       0.00000000       7.91856064       0.00000000 </v>
     <v>       0.00000000       0.00000000      12.49642882 </v>
    </varray>
    <i name="volume">    783.57110688 </i>
    <varray name="rec_basis" >
     <v>       0.12628558       0.00000000       0.00000000 </v>
     <v>       0.00000000       0.12628558       0.00000000 </v>
     <v>       0.00000000       0.00000000       0.08002286 </v>
    </varray>
   </crystal>
   <varray name="positions" >
    <v>       0.24896654       0.24896654       0.85282021 </v>
    <v>       0.75103346       0.24896654       0.85282021 </v>
    <v>       0.24896654       0.75103346       0.85282021 </v>
    <v>       0.75103346       0.75103346       0.85282021 </v>
    <v>       0.00000000       0.00000000       0.64817251 </v>
    <v>       0.50000000       0.00000000       0.64898001 </v>
    <v>       0.00000000       0.50000000       0.64898001 </v>
    <v>       0.50000000       0.50000000       0.64989744 </v>
    <v>       0.00000000       0.00000000       0.35182749 </v>
    <v>       0.50000000       0.00000000       0.35101999 </v>
    <v>       0.00000000       0.50000000       0.35101999 </v>
    <v>       0.50000000       0.50000000       0.35010256 </v>
    <v>       0.24896654       0.24896654       0.14717979 </v>
    <v>       0.75103346       0.24896654       0.14717979 </v>
    <v>       0.24896654       0.75103346       0.14717979 </v>
    <v>       0.75103346       0.75103346       0.14717979 </v>
    <v>       0.50000000       0.00000000       0.00000000 </v>
    <v>       0.00000000       0.50000000       0.00000000 </v>
    <v>       0.50000000       0.50000000       0.00000000 </v>
    <v>       0.24993716       0.24993716       0.50000000 </v>
    <v>       0.75006284       0.24993716       0.50000000 </v>
    <v>       0.24993716       0.75006284       0.50000000 </v>
    <v>       0.75006284       0.75006284       0.50000000 </v>
    <v>       0.00000000       0.24960066       0.75054733 </v>
    <v>       0.50000000       0.24973705       0.75132359 </v>
    <v>       0.00000000       0.75039934       0.75054733 </v>
    <v>       0.50000000       0.75026295       0.75132359 </v>
    <v>       0.24960066       0.00000000       0.75054733 </v>
    <v>       0.75039934       0.00000000       0.75054733 </v>
    <v>       0.24973705       0.50000000       0.75132359 </v>
    <v>       0.75026295       0.50000000       0.75132359 </v>
    <v>       0.24960066       0.00000000       0.24945267 </v>
    <v>       0.75039934       0.00000000       0.24945267 </v>
    <v>       0.24973705       0.50000000       0.24867641 </v>
    <v>       0.75026295       0.50000000       0.24867641 </v>
    <v>       0.00000000       0.24960066       0.24945267 </v>
    <v>       0.50000000       0.24973705       0.24867641 </v>
    <v>       0.00000000       0.75039934       0.24945267 </v>
    <v>       0.50000000       0.75026295       0.24867641 </v>
    <v>       0.00000000       0.00000000       0.00000000 </v>
   </varray>
  </structure>
  <varray name="forces" >
   <v>      -0.00001094      -0.00001094      -0.00000721 </v>
   <v>       0.00001094      -0.00001094      -0.00000721 </v>
   <v>      -0.00001094       0.00001094      -0.00000721 </v>
   <v>       0.00001094       0.00001094      -0.00000721 </v>
   <v>       0.00000000      -0.00000000       0.00000464 </v>
   <v>       0.00000000       0.00000000       0.00000329 </v>
   <v>       0.00000000       0.00000000       0.00000329 </v>
   <v>       0.00000000       0.00000000       0.00001119 </v>
   <v>       0.00000000       0.00000000      -0.00000464 </v>
   <v>       0.00000000      -0.00000000      -0.00000329 </v>
   <v>       0.00000000       0.00000000      -0.00000329 </v>
   <v>       0.00000000      -0.00000000      -0.00001119 </v>
   <v>      -0.00001094      -0.00001094       0.00000721 </v>
   <v>       0.00001094      -0.00001094       0.00000721 </v>
   <v>      -0.00001094       0.00001094       0.00000721 </v>
   <v>       0.00001094       0.00001094       0.00000721 </v>
   <v>       0.00000000       0.00000000      -0.00000000 </v>
   <v>       0.00000000      -0.00000000      -0.00000000 </v>
   <v>       0.00000000      -0.00000000      -0.00000000 </v>
   <v>      -0.00000145      -0.00000145      -0.00000000 </v>
   <v>       0.00000145      -0.00000145      -0.00000000 </v>
   <v>      -0.00000145       0.00000145      -0.00000000 </v>
   <v>       0.00000145       0.00000145      -0.00000000 </v>
   <v>       0.00000000      -0.00001110      -0.00000057 </v>
   <v>       0.00000000      -0.00000651       0.00000203 </v>
   <v>       0.00000000       0.00001110      -0.00000057 </v>
   <v>       0.00000000       0.00000651       0.00000203 </v>
   <v>      -0.00001110      -0.00000000      -0.00000057 </v>
   <v>       0.00001110      -0.00000000      -0.00000057 </v>
   <v>      -0.00000651       0.00000000       0.00000203 </v>
   <v>       0.00000651      -0.00000000       0.00000203 </v>
   <v>      -0.00001110       0.00000000       0.00000057 </v>
   <v>       0.00001110      -0.00000000       0.00000057 </v>
   <v>      -0.00000651      -0.00000000      -0.00000203 </v>
   <v>       0.00000651       0.00000000      -0.00000203 </v>
   <v>       0.00000000      -0.00001110       0.00000057 </v>
   <v>       0.00000000      -0.00000651      -0.00000203 </v>
   <v>       0.00000000       0.00001110       0.00000057 </v>
   <v>       0.00000000       0.00000651      -0.00000203 </v>
   <v>       0.00000000       0.00000000      -0.00000000 </v>
  </varray>
  <varray name="stress" >
   <v>     -23.93073074       0.00000000       0.00000000 </v>
   <v>       0.00000000     -23.93073074       0.00000000 </v>
   <v>       0.00000000       0.00000000     -17.96752261 </v>
  </varray>
  <energy>
   <i name="e_fr_energy">   -208.71634133 </i>
   <i name="e_wo_entrp">   -208.71634090 </i>
   <i name="e_0_energy">   -208.71634112 </i>
  </energy>
  <time name="totalsc">  958.47  958.77</time>
 </calculation>
 <calculation>
  <scstep>
   <time name="dav">   30.81   30.83</time>
   <time name="total">   32.91   32.93</time>
   <energy>
    <i name="alphaZ">   1289.16975503 </i>
    <i name="ewald"> -29015.75087924 </i>
    <i name="hartreedc"> -11822.14472997 </i>
    <i name="XCdc">   1248.67650288 </i>
    <i name="pawpsdc">  36030.41509402 </i>
    <i name="pawaedc"> -35424.22810328 </i>
    <i name="eentropy">     -0.00000044 </i>
    <i name="bandstr">  -2856.50582623 </i>
    <i name="atom">  40341.65184589 </i>
    <i name="e_fr_energy">   -208.71634134 </i>
    <i name="e_wo_entrp">   -208.71634090 </i>
    <i name="e_0_energy">   -208.71634112 </i>
   </energy>
  </scstep>
  <scstep>
   <time name="dav">   23.82   23.82</time>
   <time name="total">   25.91   25.91</time>
   <energy>
    <i name="e_fr_energy">   -208.71634134 </i>
    <i name="e_wo_entrp">   -208.71634090 </i>
    <i name="e_0_energy">   -208.71634112 </i>
   </energy>
  </scstep>
  <scstep>
   <time name="dav">   23.80   23.80</time>
   <time name="total">   25.89   25.89</time>
   <energy>
    <i name="e_fr_energy">   -208.71634134 </i>
    <i name="e_wo_entrp">   -208.71634090 </i>
    <i name="e_0_energy">   -208.71634112 </i>
   </energy>
  </scstep>
  <scstep>
   <time name="dav">   23.60   23.61</time>
   <time name="total">   25.70   25.70</time>
   <energy>
    <i name="e_fr_energy">   -208.71634134 </i>
    <i name="e_wo_entrp">   -208.71634090 </i>
    <i name="e_0_energy">   -208.71634112 </i>
   </energy>
  </scstep>
  <scstep>
   <time name="dav">   23.42   23.42</time>
   <time name="total">   24.25   24.25</time>
   <energy>
    <i name="alphaZ">   1289.16975503 </i>
    <i name="ewald"> -29015.75087924 </i>
    <i name="hartreedc"> -11822.14471106 </i>
    <i name="XCdc">   1248.67650721 </i>
    <i name="pawpsdc">  36030.41635814 </i>
    <i name="pawaedc"> -35424.22937603 </i>
    <i name="eentropy">     -0.00000044 </i>
    <i name="bandstr">  -2856.50584084 </i>
    <i name="atom">  40341.65184589 </i>
    <i name="e_fr_energy">   -208.71634134 </i>
    <i name="e_wo_entrp">   -208.71634090 </i>
    <i name="e_0_energy">   -208.71634112 </i>
   </energy>
  </scstep>
  <structure>
   <crystal>
    <varray name="basis" >
     <v>       7.91856064       0.00000000       0.00000000 </v>
     <v>       0.00000000       7.91856064       0.00000000 </v>
     <v>       0.00000000       0.00000000      12.49642882 </v>
    </varray>
    <i name="volume">    783.57110688 </i>
    <varray name="rec_basis" >
     <v>       0.12628558       0.00000000       0.00000000 </v>
     <v>       0.00000000       0.12628558       0.00000000 </v>
     <v>       0.00000000       0.00000000       0.08002286 </v>
    </varray>
   </crystal>
   <varray name="positions" >
    <v>       0.24896648       0.24896648       0.85282018 </v>
    <v>       0.75103352       0.24896648       0.85282018 </v>
    <v>       0.24896648       0.75103352       0.85282018 </v>
    <v>       0.75103352       0.75103352       0.85282018 </v>
    <v>       0.00000000       1.00000000       0.64817253 </v>
    <v>       0.50000000       0.00000000       0.64898003 </v>
    <v>       0.00000000       0.50000000       0.64898003 </v>
    <v>       0.50000000       0.50000000       0.64989748 </v>
    <v>       0.00000000       0.00000000       0.35182747 </v>
    <v>       0.50000000       1.00000000       0.35101997 </v>
    <v>       0.00000000       0.50000000       0.35101997 </v>
    <v>       0.50000000       0.50000000       0.35010252 </v>
    <v>       0.24896648       0.24896648       0.14717982 </v>
    <v>       0.75103352       0.24896648       0.14717982 </v>
    <v>       0.24896648       0.75103352       0.14717982 </v>
    <v>       0.75103352       0.75103352       0.14717982 </v>
    <v>       0.50000000       0.00000000       1.00000000 </v>
    <v>       0.00000000       0.50000000       1.00000000 </v>
    <v>       0.50000000       0.50000000       1.00000000 </v>
    <v>       0.24993715       0.24993715       0.50000000 </v>
    <v>       0.75006285       0.24993715       0.50000000 </v>
    <v>       0.24993715       0.75006285       0.50000000 </v>
    <v>       0.75006285       0.75006285       0.50000000 </v>
    <v>       0.00000000       0.24960059       0.75054733 </v>
    <v>       0.50000000       0.24973701       0.75132360 </v>
    <v>       0.00000000       0.75039941       0.75054733 </v>
    <v>       0.50000000       0.75026299       0.75132360 </v>
    <v>       0.24960059       1.00000000       0.75054733 </v>
    <v>       0.75039941       1.00000000       0.75054733 </v>
    <v>       0.24973701       0.50000000       0.75132360 </v>
    <v>       0.75026299       0.50000000       0.75132360 </v>
    <v>       0.24960059       0.00000000       0.24945267 </v>
    <v>       0.75039941       1.00000000       0.24945267 </v>
    <v>       0.24973701       0.50000000       0.24867640 </v>
    <v>       0.75026299       0.50000000       0.24867640 </v>
    <v>       0.00000000       0.24960059       0.24945267 </v>
    <v>       0.50000000       0.24973701       0.24867640 </v>
    <v>       0.00000000       0.75039941       0.24945267 </v>
    <v>       0.50000000       0.75026299       0.24867640 </v>
    <v>       0.00000000       0.00000000       1.00000000 </v>
   </varray>
  </structure>
  <varray name="forces" >
   <v>       0.00000591       0.00000591       0.00000817 </v>
   <v>      -0.00000591       0.00000591       0.00000817 </v>
   <v>       0.00000591      -0.00000591       0.00000817 </v>
   <v>      -0.00000591      -0.00000591       0.00000817 </v>
   <v>       0.00000000       0.00000000      -0.00001148 </v>
   <v>       0.00000000       0.00000000      -0.00000527 </v>
   <v>       0.00000000       0.00000000      -0.00000527 </v>
   <v>       0.00000000       0.00000000      -0.00000500 </v>
   <v>      -0.00000000       0.00000000       0.00001148 </v>
   <v>      -0.00000000       0.00000000       0.00000527 </v>
   <v>      -0.00000000       0.00000000       0.00000527 </v>
   <v>      -0.00000000       0.00000000       0.00000500 </v>
   <v>       0.00000591       0.00000591      -0.00000817 </v>
   <v>      -0.00000591       0.00000591      -0.00000817 </v>
   <v>       0.00000591      -0.00000591      -0.00000817 </v>
   <v>      -0.00000591      -0.00000591      -0.00000817 </v>
   <v>       0.00000000       0.00000000       0.00000000 </v>
   <v>       0.00000000       0.00000000       0.00000000 </v>
   <v>       0.00000000       0.00000000       0.00000000 </v>
   <v>      -0.00000053      -0.00000053       0.00000000 </v>
   <v>       0.00000053      -0.00000053       0.00000000 </v>
   <v>      -0.00000053       0.00000053       0.00000000 </v>
   <v>       0.00000053       0.00000053       0.00000000 </v>
   <v>      -0.00000000      -0.00000638      -0.00000209 </v>
   <v>      -0.00000000      -0.00000483       0.00000204 </v>
   <v>       0.00000000       0.00000638      -0.00000209 </v>
   <v>       0.00000000       0.00000483       0.00000204 </v>
   <v>      -0.00000638       0.00000000      -0.00000209 </v>
   <v>       0.00000638       0.00000000      -0.00000209 </v>
   <v>      -0.00000483       0.00000000       0.00000204 </v>
   <v>       0.00000483       0.00000000       0.00000204 </v>
   <v>      -0.00000638       0.00000000       0.00000209 </v>
   <v>       0.00000638       0.00000000       0.00000209 </v>
   <v>      -0.00000483       0.00000000      -0.00000204 </v>
   <v>       0.00000483       0.00000000      -0.00000204 </v>
   <v>       0.00000000      -0.00000638       0.00000209 </v>
   <v>      -0.00000000      -0.00000483      -0.00000204 </v>
   <v>      -0.00000000       0.00000638       0.00000209 </v>
   <v>      -0.00000000       0.00000483      -0.00000204 </v>
   <v>      -0.00000000       0.00000000       0.00000000 </v>
  </varray>
  <varray name="stress" >
   <v>     -23.93112324       0.00000000      -0.00000000 </v>
   <v>       0.00000000     -23.93112324       0.00000000 </v>
   <v>      -0.00000000       0.00000000     -17.96792686 </v>
  </varray>
  <energy>
   <i name="e_fr_energy">   -208.71634134 </i>
   <i name="e_wo_entrp">   -208.71634090 </i>
   <i name="e_0_energy">   -208.71634112 </i>
  </energy>
  <time name="totalsc">  165.34  165.37</time>
 </calculation>
 <calculation>
  <scstep>
   <time name="dav">   23.31   23.32</time>
   <time name="total">   25.41   25.41</time>
   <energy>
    <i name="alphaZ">   1289.16975503 </i>
    <i name="ewald"> -29015.75132120 </i>
    <i name="hartreedc"> -11822.14428832 </i>
    <i name="XCdc">   1248.67650593 </i>
    <i name="pawpsdc">  36030.41639942 </i>
    <i name="pawaedc"> -35424.22941832 </i>
    <i name="eentropy">     -0.00000044 </i>
    <i name="bandstr">  -2856.50581933 </i>
    <i name="atom">  40341.65184589 </i>
    <i name="e_fr_energy">   -208.71634134 </i>
    <i name="e_wo_entrp">   -208.71634090 </i>
    <i name="e_0_energy">   -208.71634112 </i>
   </energy>
  </scstep>
  <scstep>
   <time name="dav">   23.31   23.31</time>
   <time name="total">   25.41   25.41</time>
   <energy>
    <i name="e_fr_energy">   -208.71634134 </i>
    <i name="e_wo_entrp">   -208.71634090 </i>
    <i name="e_0_energy">   -208.71634112 </i>
   </energy>
  </scstep>
  <scstep>
   <time name="dav">   23.31   23.31</time>
   <time name="total">   25.40   25.40</time>
   <energy>
    <i name="e_fr_energy">   -208.71634134 </i>
    <i name="e_wo_entrp">   -208.71634090 </i>
    <i name="e_0_energy">   -208.71634112 </i>
   </energy>
  </scstep>
  <scstep>
   <time name="dav">   23.31   23.31</time>
   <time name="total">   25.40   25.40</time>
   <energy>
    <i name="e_fr_energy">   -208.71634134 </i>
    <i name="e_wo_entrp">   -208.71634090 </i>
    <i name="e_0_energy">   -208.71634112 </i>
   </energy>
  </scstep>
  <scstep>
   <time name="dav">   23.32   23.32</time>
   <time name="total">   24.15   24.15</time>
   <energy>
    <i name="alphaZ">   1289.16975503 </i>
    <i name="ewald"> -29015.75132120 </i>
    <i name="hartreedc"> -11822.14429752 </i>
    <i name="XCdc">   1248.67650550 </i>
    <i name="pawpsdc">  36030.41627180 </i>
    <i name="pawaedc"> -35424.22928900 </i>
    <i name="eentropy">     -0.00000044 </i>
    <i name="bandstr">  -2856.50581140 </i>
    <i name="atom">  40341.65184589 </i>
    <i name="e_fr_energy">   -208.71634134 </i>
    <i name="e_wo_entrp">   -208.71634090 </i>
    <i name="e_0_energy">   -208.71634112 </i>
   </energy>
  </scstep>
  <structure>
   <crystal>
    <varray name="basis" >
     <v>       7.91856064       0.00000000       0.00000000 </v>
     <v>       0.00000000       7.91856064       0.00000000 </v>
     <v>       0.00000000       0.00000000      12.49642882 </v>
    </varray>
    <i name="volume">    783.57110688 </i>
    <varray name="rec_basis" >
     <v>       0.12628558       0.00000000       0.00000000 </v>
     <v>       0.00000000       0.12628558       0.00000000 </v>
     <v>       0.00000000       0.00000000       0.08002286 </v>
    </varray>
   </crystal>
   <varray name="positions" >
    <v>       0.24896649       0.24896649       0.85282018 </v>
    <v>       0.75103351       0.24896649       0.85282018 </v>
    <v>       0.24896649       0.75103351       0.85282018 </v>
    <v>       0.75103351       0.75103351       0.85282018 </v>
    <v>       0.00000000       0.00000000       0.64817253 </v>
    <v>       0.50000000       0.00000000       0.64898002 </v>
    <v>       0.00000000       0.50000000       0.64898002 </v>
    <v>       0.50000000       0.50000000       0.64989747 </v>
    <v>       0.00000000       0.00000000       0.35182747 </v>
    <v>       0.50000000       0.00000000       0.35101998 </v>
    <v>       0.00000000       0.50000000       0.35101998 </v>
    <v>       0.50000000       0.50000000       0.35010253 </v>
    <v>       0.24896649       0.24896649       0.14717982 </v>
    <v>       0.75103351       0.24896649       0.14717982 </v>
    <v>       0.24896649       0.75103351       0.14717982 </v>
    <v>       0.75103351       0.75103351       0.14717982 </v>
    <v>       0.50000000       0.00000000       0.00000000 </v>
    <v>       0.00000000       0.50000000       0.00000000 </v>
    <v>       0.50000000       0.50000000       0.00000000 </v>
    <v>       0.24993715       0.24993715       0.50000000 </v>
    <v>       0.75006285       0.24993715       0.50000000 </v>
    <v>       0.24993715       0.75006285       0.50000000 </v>
    <v>       0.75006285       0.75006285       0.50000000 </v>
    <v>       0.00000000       0.24960061       0.75054733 </v>
    <v>       0.50000000       0.24973702       0.75132360 </v>
    <v>       0.00000000       0.75039939       0.75054733 </v>
    <v>       0.50000000       0.75026298       0.75132360 </v>
    <v>       0.24960061       0.00000000       0.75054733 </v>
    <v>       0.75039939       0.00000000       0.75054733 </v>
    <v>       0.24973702       0.50000000       0.75132360 </v>
    <v>       0.75026298       0.50000000       0.75132360 </v>
    <v>       0.24960061       0.00000000       0.24945267 </v>
    <v>       0.75039939       0.00000000       0.24945267 </v>
    <v>       0.24973702       0.50000000       0.24867640 </v>
    <v>       0.75026298       0.50000000       0.24867640 </v>
    <v>       0.00000000       0.24960061       0.24945267 </v>
    <v>       0.50000000       0.24973702       0.24867640 </v>
    <v>       0.00000000       0.75039939       0.24945267 </v>
    <v>       0.50000000       0.75026298       0.24867640 </v>
    <v>       0.00000000       0.00000000       0.00000000 </v>
   </varray>
  </structure>
  <varray name="forces" >
   <v>      -0.00001426      -0.00001426      -0.00000557 </v>
   <v>       0.00001426      -0.00001426      -0.00000557 </v>
   <v>      -0.00001426       0.00001426      -0.00000557 </v>
   <v>       0.00001426       0.00001426      -0.00000557 </v>
   <v>      -0.00000000       0.00000000      -0.00000094 </v>
   <v>       0.00000000       0.00000000       0.00000204 </v>
   <v>       0.00000000       0.00000000       0.00000204 </v>
   <v>       0.00000000       0.00000000       0.00001567 </v>
   <v>       0.00000000       0.00000000       0.00000094 </v>
   <v>       0.00000000       0.00000000      -0.00000204 </v>
   <v>       0.00000000       0.00000000      -0.00000204 </v>
   <v>      -0.00000000       0.00000000      -0.00001567 </v>
   <v>      -0.00001426      -0.00001426       0.00000557 </v>
   <v>       0.00001426      -0.00001426       0.00000557 </v>
   <v>      -0.00001426       0.00001426       0.00000557 </v>
   <v>       0.00001426       0.00001426       0.00000557 </v>
   <v>      -0.00000000       0.00000000      -0.00000000 </v>
   <v>      -0.00000000       0.00000000      -0.00000000 </v>
   <v>       0.00000000       0.00000000      -0.00000000 </v>
   <v>      -0.00000091      -0.00000091      -0.00000000 </v>
   <v>       0.00000091      -0.00000091      -0.00000000 </v>
   <v>      -0.00000091       0.00000091      -0.00000000 </v>
   <v>       0.00000091       0.00000091      -0.00000000 </v>
   <v>      -0.00000000      -0.00000885      -0.00000173 </v>
   <v>       0.00000000      -0.00000621       0.00000191 </v>
   <v>      -0.00000000       0.00000885      -0.00000173 </v>
   <v>      -0.00000000       0.00000621       0.00000191 </v>
   <v>      -0.00000885       0.00000000      -0.00000173 </v>
   <v>       0.00000885       0.00000000      -0.00000173 </v>
   <v>      -0.00000621       0.00000000       0.00000191 </v>
   <v>       0.00000621       0.00000000       0.00000191 </v>
   <v>      -0.00000885       0.00000000       0.00000173 </v>
   <v>       0.00000885       0.00000000       0.00000173 </v>
   <v>      -0.00000621       0.00000000      -0.00000191 </v>
   <v>       0.00000621       0.00000000      -0.00000191 </v>
   <v>      -0.00000000      -0.00000885       0.00000173 </v>
   <v>       0.00000000      -0.00000621      -0.00000191 </v>
   <v>       0.00000000       0.00000885       0.00000173 </v>
   <v>      -0.00000000       0.00000621      -0.00000191 </v>
   <v>       0.00000000       0.00000000      -0.00000000 </v>
  </varray>
  <varray name="stress" >
   <v>     -23.93114289       0.00000000       0.00000000 </v>
   <v>       0.00000000     -23.93114289       0.00000000 </v>
   <v>       0.00000000       0.00000000     -17.96795773 </v>
  </varray>
  <energy>
   <i name="e_fr_energy">   -208.71634134 </i>
   <i name="e_wo_entrp">   -208.71634090 </i>
   <i name="e_0_energy">   -208.71634112 </i>
  </energy>
  <time name="totalsc">  156.45  156.46</time>
 </calculation>
 <calculation>
  <scstep>
   <time name="dav">   23.25   23.25</time>
   <time name="total">   25.35   25.35</time>
   <energy>
    <i name="alphaZ">   1289.16975503 </i>
    <i name="ewald"> -29015.75095697 </i>
    <i name="hartreedc"> -11822.14464497 </i>
    <i name="XCdc">   1248.67650656 </i>
    <i name="pawpsdc">  36030.41626304 </i>
    <i name="pawaedc"> -35424.22928010 </i>
    <i name="eentropy">     -0.00000044 </i>
    <i name="bandstr">  -2856.50582939 </i>
    <i name="atom">  40341.65184589 </i>
    <i name="e_fr_energy">   -208.71634134 </i>
    <i name="e_wo_entrp">   -208.71634090 </i>
    <i name="e_0_energy">   -208.71634112 </i>
   </energy>
  </scstep>
  <scstep>
   <time name="dav">   23.18   23.20</time>
   <time name="total">   25.27   25.29</time>
   <energy>
    <i name="e_fr_energy">   -208.71634134 </i>
    <i name="e_wo_entrp">   -208.71634090 </i>
    <i name="e_0_energy">   -208.71634112 </i>
   </energy>
  </scstep>
  <scstep>
   <time name="dav">   23.16   23.18</time>
   <time name="total">   25.26   25.27</time>
   <energy>
    <i name="e_fr_energy">   -208.71634134 </i>
    <i name="e_wo_entrp">   -208.71634090 </i>
    <i name="e_0_energy">   -208.71634112 </i>
   </energy>
  </scstep>
  <scstep>
   <time name="dav">   23.12   23.12</time>
   <time name="total">   25.21   25.21</time>
   <energy>
    <i name="e_fr_energy">   -208.71634134 </i>
    <i name="e_wo_entrp">   -208.71634090 </i>
    <i name="e_0_energy">   -208.71634112 </i>
   </energy>
  </scstep>
  <scstep>
   <time name="dav">   23.08   23.09</time>
   <time name="total">   23.92   23.92</time>
   <energy>
    <i name="alphaZ">   1289.16975503 </i>
    <i name="ewald"> -29015.75095697 </i>
    <i name="hartreedc"> -11822.14464280 </i>
    <i name="XCdc">   1248.67650720 </i>
    <i name="pawpsdc">  36030.41639372 </i>
    <i name="pawaedc"> -35424.22941187 </i>
    <i name="eentropy">     -0.00000044 </i>
    <i name="bandstr">  -2856.50583111 </i>
    <i name="atom">  40341.65184589 </i>
    <i name="e_fr_energy">   -208.71634134 </i>
    <i name="e_wo_entrp">   -208.71634090 </i>
    <i name="e_0_energy">   -208.71634112 </i>
   </energy>
  </scstep>
  <structure>
   <crystal>
    <varray name="basis" >
     <v>       7.91856064       0.00000000       0.00000000 </v>
     <v>       0.00000000       7.91856064       0.00000000 </v>
     <v>       0.00000000       0.00000000      12.49642882 </v>
    </varray>
    <i name="volume">    783.57110688 </i>
    <varray name="rec_basis" >
     <v>       0.12628558       0.00000000       0.00000000 </v>
     <v>       0.00000000       0.12628558       0.00000000 </v>
     <v>       0.00000000       0.00000000       0.08002286 </v>
    </varray>
   </crystal>
   <varray name="positions" >
    <v>       0.24896648       0.24896648       0.85282018 </v>
    <v>       0.75103352       0.24896648       0.85282018 </v>
    <v>       0.24896648       0.75103352       0.85282018 </v>
    <v>       0.75103352       0.75103352       0.85282018 </v>
    <v>       0.00000000       1.00000000       0.64817253 </v>
    <v>       0.50000000       0.00000000       0.64898003 </v>
    <v>       0.00000000       0.50000000       0.64898003 </v>
    <v>       0.50000000       0.50000000       0.64989748 </v>
    <v>       0.00000000       0.00000000       0.35182747 </v>
    <v>       0.50000000       1.00000000       0.35101997 </v>
    <v>       0.00000000       0.50000000       0.35101997 </v>
    <v>       0.50000000       0.50000000       0.35010252 </v>
    <v>       0.24896648       0.24896648       0.14717982 </v>
    <v>       0.75103352       0.24896648       0.14717982 </v>
    <v>       0.24896648       0.75103352       0.14717982 </v>
    <v>       0.75103352       0.75103352       0.14717982 </v>
    <v>       0.50000000       0.00000000       1.00000000 </v>
    <v>       0.00000000       0.50000000       1.00000000 </v>
    <v>       0.50000000       0.50000000       1.00000000 </v>
    <v>       0.24993715       0.24993715       0.50000000 </v>
    <v>       0.75006285       0.24993715       0.50000000 </v>
    <v>       0.24993715       0.75006285       0.50000000 </v>
    <v>       0.75006285       0.75006285       0.50000000 </v>
    <v>       0.00000000       0.24960060       0.75054733 </v>
    <v>       0.50000000       0.24973701       0.75132360 </v>
    <v>       0.00000000       0.75039940       0.75054733 </v>
    <v>       0.50000000       0.75026299       0.75132360 </v>
    <v>       0.24960060       1.00000000       0.75054733 </v>
    <v>       0.75039940       1.00000000       0.75054733 </v>
    <v>       0.24973701       0.50000000       0.75132360 </v>
    <v>       0.75026299       0.50000000       0.75132360 </v>
    <v>       0.24960060       0.00000000       0.24945267 </v>
    <v>       0.75039940       1.00000000       0.24945267 </v>
    <v>       0.24973701       0.50000000       0.24867640 </v>
    <v>       0.75026299       0.50000000       0.24867640 </v>
    <v>       0.00000000       0.24960060       0.24945267 </v>
    <v>       0.50000000       0.24973701       0.24867640 </v>
    <v>       0.00000000       0.75039940       0.24945267 </v>
    <v>       0.50000000       0.75026299       0.24867640 </v>
    <v>       0.00000000       0.00000000       1.00000000 </v>
   </varray>
  </structure>
  <varray name="forces" >
   <v>      -0.00000038      -0.00000038       0.00000392 </v>
   <v>       0.00000038      -0.00000038       0.00000392 </v>
   <v>      -0.00000038       0.00000038       0.00000392 </v>
   <v>       0.00000038       0.00000038       0.00000392 </v>
   <v>       0.00000000      -0.00000000      -0.00000835 </v>
   <v>       0.00000000      -0.00000000      -0.00000290 </v>
   <v>       0.00000000      -0.00000000      -0.00000290 </v>
   <v>      -0.00000000      -0.00000000       0.00000153 </v>
   <v>      -0.00000000      -0.00000000       0.00000835 </v>
   <v>      -0.00000000       0.00000000       0.00000290 </v>
   <v>      -0.00000000      -0.00000000       0.00000290 </v>
   <v>       0.00000000      -0.00000000      -0.00000153 </v>
   <v>      -0.00000038      -0.00000038      -0.00000392 </v>
   <v>       0.00000038      -0.00000038      -0.00000392 </v>
   <v>      -0.00000038       0.00000038      -0.00000392 </v>
   <v>       0.00000038       0.00000038      -0.00000392 </v>
   <v>      -0.00000000      -0.00000000       0.00000000 </v>
   <v>      -0.00000000      -0.00000000       0.00000000 </v>
   <v>       0.00000000       0.00000000       0.00000000 </v>
   <v>      -0.00000069      -0.00000069       0.00000000 </v>
   <v>       0.00000069      -0.00000069       0.00000000 </v>
   <v>      -0.00000069       0.00000069       0.00000000 </v>
   <v>       0.00000069       0.00000069       0.00000000 </v>
   <v>       0.00000000      -0.00000679      -0.00000195 </v>
   <v>      -0.00000000      -0.00000511       0.00000175 </v>
   <v>       0.00000000       0.00000679      -0.00000195 </v>
   <v>       0.00000000       0.00000511       0.00000175 </v>
   <v>      -0.00000679       0.00000000      -0.00000195 </v>
   <v>       0.00000679      -0.00000000      -0.00000195 </v>
   <v>      -0.00000511      -0.00000000       0.00000175 </v>
   <v>       0.00000511       0.00000000       0.00000175 </v>
   <v>      -0.00000679      -0.00000000       0.00000195 </v>
   <v>       0.00000679       0.00000000       0.00000195 </v>
   <v>      -0.00000511      -0.00000000      -0.00000175 </v>
   <v>       0.00000511      -0.00000000      -0.00000175 </v>
   <v>      -0.00000000      -0.00000679       0.00000195 </v>
   <v>      -0.00000000      -0.00000511      -0.00000175 </v>
   <v>       0.00000000       0.00000679       0.00000195 </v>
   <v>       0.00000000       0.00000511      -0.00000175 </v>
   <v>       0.00000000      -0.00000000       0.00000000 </v>
  </varray>
  <varray name="stress" >
   <v>     -23.93111358       0.00000000       0.00000000 </v>
   <v>       0.00000000     -23.93111358       0.00000000 </v>
   <v>       0.00000000       0.00000000     -17.96792774 </v>
  </varray>
  <energy>
   <i name="e_fr_energy">   -208.71634134 </i>
   <i name="e_wo_entrp">   -208.71634090 </i>
   <i name="e_0_energy">   -208.71634112 </i>
  </energy>
  <time name="totalsc">  154.24  154.28</time>
  <eigenvalues>
   <array>
    <dimension dim="1">band</dimension>
    <dimension dim="2">kpoint</dimension>
    <dimension dim="3">spin</dimension>
    <field>eigene</field>
    <field>occ</field>
    <set>
     <set comment="spin 1">
      <set comment="kpoint 1">
       <r>  -17.1255    1.0000 </r>
       <r>  -17.1242    1.0000 </r>
       <r>  -17.1222    1.0000 </r>
       <r>  -17.1222    1.0000 </r>
       <r>  -17.1110    1.0000 </r>
       <r>  -17.1110    1.0000 </r>
       <r>  -17.0723    1.0000 </r>
       <r>  -17.0708    1.0000 </r>
       <r>  -17.0685    1.0000 </r>
       <r>  -17.0685    1.0000 </r>
       <r>  -17.0634    1.0000 </r>
       <r>  -17.0614    1.0000 </r>
       <r>  -17.0606    1.0000 </r>
       <r>  -17.0606    1.0000 </r>
       <r>  -16.9959    1.0000 </r>
       <r>  -16.9828    1.0000 </r>
       <r>  -16.9828    1.0000 </r>
       <r>  -16.9768    1.0000 </r>
       <r>  -16.9743    1.0000 </r>
       <r>  -16.9743    1.0000 </r>
       <r>  -16.9731    1.0000 </r>
       <r>  -16.9701    1.0000 </r>
       <r>  -16.9689    1.0000 </r>
       <r>  -16.9633    1.0000 </r>
       <r>  -16.9633    1.0000 </r>
       <r>  -16.9627    1.0000 </r>
       <r>  -16.9620    1.0000 </r>
       <r>  -16.9612    1.0000 </r>
       <r>  -16.9602    1.0000 </r>
       <r>  -16.9588    1.0000 </r>
       <r>  -16.9582    1.0000 </r>
       <r>  -16.9582    1.0000 </r>
       <r>  -16.9576    1.0000 </r>
       <r>  -16.9545    1.0000 </r>
       <r>  -16.9530    1.0000 </r>
       <r>  -16.9530    1.0000 </r>
       <r>  -16.9527    1.0000 </r>
       <r>  -16.9507    1.0000 </r>
       <r>  -16.9507    1.0000 </r>
       <r>  -16.9501    1.0000 </r>
       <r>  -16.9489    1.0000 </r>
       <r>  -16.9455    1.0000 </r>
       <r>  -16.9441    1.0000 </r>
       <r>  -16.9309    1.0000 </r>
       <r>  -16.9296    1.0000 </r>
       <r>  -16.9293    1.0000 </r>
       <r>  -16.9243    1.0000 </r>
       <r>  -16.9243    1.0000 </r>
       <r>  -16.9219    1.0000 </r>
       <r>  -16.9217    1.0000 </r>
       <r>  -16.9208    1.0000 </r>
       <r>  -16.9201    1.0000 </r>
       <r>  -16.9175    1.0000 </r>
       <r>  -16.9175    1.0000 </r>
       <r>  -16.9143    1.0000 </r>
       <r>  -16.9143    1.0000 </r>
       <r>  -16.9108    1.0000 </r>
       <r>  -16.9088    1.0000 </r>
       <r>  -16.9088    1.0000 </r>
       <r>  -16.9076    1.0000 </r>
       <r>  -16.9074    1.0000 </r>
       <r>  -16.9058    1.0000 </r>
       <r>  -16.9058    1.0000 </r>
       <r>  -16.9058    1.0000 </r>
       <r>  -16.9058    1.0000 </r>
       <r>  -16.9054    1.0000 </r>
       <r>  -16.9045    1.0000 </r>
       <r>  -16.9030    1.0000 </r>
       <r>  -16.9027    1.0000 </r>
       <r>  -16.9024    1.0000 </r>
       <r>  -16.9024    1.0000 </r>
       <r>  -16.9008    1.0000 </r>
       <r>  -16.9008    1.0000 </r>
       <r>  -16.9006    1.0000 </r>
       <r>  -16.8997    1.0000 </r>
       <r>  -16.8988    1.0000 </r>
       <r>  -16.8984    1.0000 </r>
       <r>  -16.8974    1.0000 </r>
       <r>  -16.8956    1.0000 </r>
       <r>  -16.8949    1.0000 </r>
       <r>  -13.2515    1.0000 </r>
       <r>  -13.2379    1.0000 </r>
       <r>  -12.0234    1.0000 </r>
       <r>  -12.0234    1.0000 </r>
       <r>  -12.0234    1.0000 </r>
       <r>  -12.0212    1.0000 </r>
       <r>  -12.0162    1.0000 </r>
       <r>  -12.0159    1.0000 </r>
       <r>  -12.0159    1.0000 </r>
       <r>  -12.0136    1.0000 </r>
       <r>  -11.7253    1.0000 </r>
       <r>  -11.7253    1.0000 </r>
       <r>  -11.7209    1.0000 </r>
       <r>  -11.7209    1.0000 </r>
       <r>  -11.0083    1.0000 </r>
       <r>  -11.0079    1.0000 </r>
       <r>   -6.5143    1.0000 </r>
       <r>   -5.9894    1.0000 </r>
       <r>   -5.3064    1.0000 </r>
       <r>   -5.2723    1.0000 </r>
       <r>   -5.2723    1.0000 </r>
       <r>   -5.1244    1.0000 </r>
       <r>   -5.0221    1.0000 </r>
       <r>   -4.9484    1.0000 </r>
       <r>   -4.8555    1.0000 </r>
       <r>   -4.7656    1.0000 </r>
       <r>   -4.7129    1.0000 </r>
       <r>   -4.7055    1.0000 </r>
       <r>   -4.6897    1.0000 </r>
       <r>   -4.4277    1.0000 </r>
       <r>   -4.4277    1.0000 </r>
       <r>   -4.4196    1.0000 </r>
       <r>   -4.4113    1.0000 </r>
       <r>   -3.9563    1.0000 </r>
       <r>   -3.9523    1.0000 </r>
       <r>   -3.9378    1.0000 </r>
       <r>   -3.9378    1.0000 </r>
       <r>   -3.6137    1.0000 </r>
       <r>   -2.5931    1.0000 </r>
       <r>   -1.9876    1.0000 </r>
       <r>    0.6494    1.0000 </r>
       <r>    0.6494    1.0000 </r>
       <r>    0.7193    1.0000 </r>
       <r>    0.7193    1.0000 </r>
       <r>    0.8546    1.0000 </r>
       <r>    0.8546    1.0000 </r>
       <r>    1.2620    1.0000 </r>
       <r>    1.2620    1.0000 </r>
       <r>    1.2637    1.0000 </r>
       <r>    1.2834    1.0000 </r>
       <r>    1.2834    1.0000 </r>
       <r>    1.3097    1.0000 </r>
       <r>    1.4415    1.0000 </r>
       <r>    1.4415    1.0000 </r>
       <r>    1.4444    1.0000 </r>
       <r>    1.4448    1.0000 </r>
       <r>    1.4947    1.0000 </r>
       <r>    1.5232    1.0000 </r>
       <r>    1.9648    1.0000 </r>
       <r>    1.9657    1.0000 </r>
       <r>    1.9686    1.0000 </r>
       <r>    1.9686    1.0000 </r>
       <r>    1.9944    1.0000 </r>
       <r>    1.9957    1.0000 </r>
       <r>    1.9972    1.0000 </r>
       <r>    1.9972    1.0000 </r>
       <r>    2.2521    1.0000 </r>
       <r>    2.2539    1.0000 </r>
       <r>    2.2558    1.0000 </r>
       <r>    2.2558    1.0000 </r>
       <r>    2.3584    1.0000 </r>
       <r>    2.3872    1.0000 </r>
       <r>    3.0084    1.0000 </r>
       <r>    3.0084    1.0000 </r>
       <r>    3.2467    1.0000 </r>
       <r>    3.2573    1.0000 </r>
       <r>    3.4330    1.0000 </r>
       <r>    3.4330    1.0000 </r>
       <r>    3.4579    1.0000 </r>
       <r>    3.4622    1.0000 </r>
       <r>    3.4803    1.0000 </r>
       <r>    3.4803    1.0000 </r>
       <r>    3.4960    1.0000 </r>
       <r>    3.4960    1.0000 </r>
       <r>    3.6871    1.0000 </r>
       <r>    4.1837    1.0000 </r>
       <r>    4.1839    1.0000 </r>
       <r>    4.1868    1.0000 </r>
       <r>    4.1870    1.0000 </r>
       <r>    4.1922    1.0000 </r>
       <r>    4.2236    1.0000 </r>
       <r>    4.2236    1.0000 </r>
       <r>    4.7741    1.0000 </r>
       <r>    4.9071    1.0000 </r>
       <r>    4.9071    1.0000 </r>
       <r>    4.9086    1.0000 </r>
       <r>    4.9316    1.0000 </r>
       <r>    5.1481    1.0000 </r>
       <r>    5.1481    1.0000 </r>
       <r>    5.1938    1.0000 </r>
       <r>    5.2028    1.0000 </r>
       <r>    5.3385    1.0000 </r>
       <r>    5.4899    1.0000 </r>
       <r>    5.4899    1.0000 </r>
       <r>    5.5082    1.0000 </r>
       <r>    5.5109    1.0000 </r>
       <r>    5.5246    1.0000 </r>
       <r>    5.5246    1.0000 </r>
       <r>    5.9657    1.0000 </r>
       <r>    5.9657    1.0000 </r>
       <r>    6.0488    1.0000 </r>
       <r>    6.0505    1.0000 </r>
       <r>    6.3463    0.0000 </r>
       <r>    6.8440    0.0000 </r>
       <r>    6.8440    0.0000 </r>
       <r>    6.9250    0.0000 </r>
       <r>    8.3303    0.0000 </r>
       <r>    8.3349    0.0000 </r>
       <r>    8.3349    0.0000 </r>
       <r>    8.3661    0.0000 </r>
       <r>    8.8573    0.0000 </r>
       <r>    8.9104    0.0000 </r>
       <r>    8.9104    0.0000 </r>
       <r>    9.0129    0.0000 </r>
       <r>    9.0292    0.0000 </r>
       <r>    9.4766    0.0000 </r>
       <r>    9.4818    0.0000 </r>
       <r>    9.4818    0.0000 </r>
       <r>    9.5128    0.0000 </r>
       <r>    9.5128    0.0000 </r>
       <r>    9.5401    0.0000 </r>
       <r>    9.5723    0.0000 </r>
       <r>    9.5723    0.0000 </r>
       <r>    9.8025    0.0000 </r>
       <r>    9.8025    0.0000 </r>
       <r>    9.8682    0.0000 </r>
       <r>    9.8787    0.0000 </r>
       <r>    9.8933    0.0000 </r>
       <r>   10.1830    0.0000 </r>
       <r>   10.1951    0.0000 </r>
       <r>   10.2498    0.0000 </r>
       <r>   10.2498    0.0000 </r>
       <r>   10.3822    0.0000 </r>
       <r>   10.3822    0.0000 </r>
       <r>   10.4907    0.0000 </r>
       <r>   10.4907    0.0000 </r>
       <r>   10.5070    0.0000 </r>
       <r>   10.5578    0.0000 </r>
       <r>   10.6387    0.0000 </r>
       <r>   10.7557    0.0000 </r>
       <r>   10.7653    0.0000 </r>
       <r>   10.7859    0.0000 </r>
      </set>
      <set comment="kpoint 2">
       <r>  -17.1213    1.0000 </r>
       <r>  -17.1195    1.0000 </r>
       <r>  -17.1149    1.0000 </r>
       <r>  -17.1145    1.0000 </r>
       <r>  -17.1039    1.0000 </r>
       <r>  -17.1037    1.0000 </r>
       <r>  -17.0958    1.0000 </r>
       <r>  -17.0896    1.0000 </r>
       <r>  -17.0788    1.0000 </r>
       <r>  -17.0763    1.0000 </r>
       <r>  -17.0692    1.0000 </r>
       <r>  -17.0676    1.0000 </r>
       <r>  -17.0302    1.0000 </r>
       <r>  -17.0203    1.0000 </r>
       <r>  -16.9945    1.0000 </r>
       <r>  -16.9861    1.0000 </r>
       <r>  -16.9801    1.0000 </r>
       <r>  -16.9733    1.0000 </r>
       <r>  -16.9732    1.0000 </r>
       <r>  -16.9709    1.0000 </r>
       <r>  -16.9706    1.0000 </r>
       <r>  -16.9702    1.0000 </r>
       <r>  -16.9691    1.0000 </r>
       <r>  -16.9661    1.0000 </r>
       <r>  -16.9639    1.0000 </r>
       <r>  -16.9625    1.0000 </r>
       <r>  -16.9625    1.0000 </r>
       <r>  -16.9573    1.0000 </r>
       <r>  -16.9570    1.0000 </r>
       <r>  -16.9562    1.0000 </r>
       <r>  -16.9558    1.0000 </r>
       <r>  -16.9552    1.0000 </r>
       <r>  -16.9532    1.0000 </r>
       <r>  -16.9517    1.0000 </r>
       <r>  -16.9516    1.0000 </r>
       <r>  -16.9491    1.0000 </r>
       <r>  -16.9485    1.0000 </r>
       <r>  -16.9480    1.0000 </r>
       <r>  -16.9451    1.0000 </r>
       <r>  -16.9449    1.0000 </r>
       <r>  -16.9448    1.0000 </r>
       <r>  -16.9445    1.0000 </r>
       <r>  -16.9437    1.0000 </r>
       <r>  -16.9362    1.0000 </r>
       <r>  -16.9319    1.0000 </r>
       <r>  -16.9317    1.0000 </r>
       <r>  -16.9309    1.0000 </r>
       <r>  -16.9301    1.0000 </r>
       <r>  -16.9289    1.0000 </r>
       <r>  -16.9261    1.0000 </r>
       <r>  -16.9235    1.0000 </r>
       <r>  -16.9222    1.0000 </r>
       <r>  -16.9196    1.0000 </r>
       <r>  -16.9189    1.0000 </r>
       <r>  -16.9186    1.0000 </r>
       <r>  -16.9162    1.0000 </r>
       <r>  -16.9153    1.0000 </r>
       <r>  -16.9145    1.0000 </r>
       <r>  -16.9109    1.0000 </r>
       <r>  -16.9105    1.0000 </r>
       <r>  -16.9088    1.0000 </r>
       <r>  -16.9085    1.0000 </r>
       <r>  -16.9082    1.0000 </r>
       <r>  -16.9081    1.0000 </r>
       <r>  -16.9065    1.0000 </r>
       <r>  -16.9059    1.0000 </r>
       <r>  -16.9056    1.0000 </r>
       <r>  -16.9044    1.0000 </r>
       <r>  -16.9038    1.0000 </r>
       <r>  -16.9037    1.0000 </r>
       <r>  -16.9036    1.0000 </r>
       <r>  -16.9032    1.0000 </r>
       <r>  -16.9021    1.0000 </r>
       <r>  -16.9020    1.0000 </r>
       <r>  -16.9013    1.0000 </r>
       <r>  -16.9009    1.0000 </r>
       <r>  -16.8998    1.0000 </r>
       <r>  -16.8997    1.0000 </r>
       <r>  -16.8988    1.0000 </r>
       <r>  -16.8982    1.0000 </r>
       <r>  -13.1552    1.0000 </r>
       <r>  -13.1419    1.0000 </r>
       <r>  -12.4817    1.0000 </r>
       <r>  -12.4712    1.0000 </r>
       <r>  -11.9829    1.0000 </r>
       <r>  -11.9816    1.0000 </r>
       <r>  -11.9758    1.0000 </r>
       <r>  -11.9746    1.0000 </r>
       <r>  -11.7726    1.0000 </r>
       <r>  -11.7717    1.0000 </r>
       <r>  -11.7677    1.0000 </r>
       <r>  -11.7667    1.0000 </r>
       <r>  -11.5905    1.0000 </r>
       <r>  -11.5865    1.0000 </r>
       <r>  -11.0692    1.0000 </r>
       <r>  -11.0689    1.0000 </r>
       <r>   -6.4114    1.0000 </r>
       <r>   -5.9144    1.0000 </r>
       <r>   -5.6319    1.0000 </r>
       <r>   -5.4126    1.0000 </r>
       <r>   -5.2246    1.0000 </r>
       <r>   -5.1478    1.0000 </r>
       <r>   -5.0055    1.0000 </r>
       <r>   -4.8757    1.0000 </r>
       <r>   -4.8371    1.0000 </r>
       <r>   -4.7550    1.0000 </r>
       <r>   -4.7341    1.0000 </r>
       <r>   -4.5961    1.0000 </r>
       <r>   -4.5876    1.0000 </r>
       <r>   -4.4904    1.0000 </r>
       <r>   -4.4789    1.0000 </r>
       <r>   -4.3615    1.0000 </r>
       <r>   -4.3596    1.0000 </r>
       <r>   -4.0583    1.0000 </r>
       <r>   -4.0435    1.0000 </r>
       <r>   -3.7769    1.0000 </r>
       <r>   -3.7385    1.0000 </r>
       <r>   -3.4344    1.0000 </r>
       <r>   -2.6830    1.0000 </r>
       <r>   -2.2528    1.0000 </r>
       <r>    0.6531    1.0000 </r>
       <r>    0.6888    1.0000 </r>
       <r>    0.6941    1.0000 </r>
       <r>    0.7319    1.0000 </r>
       <r>    0.7456    1.0000 </r>
       <r>    0.8110    1.0000 </r>
       <r>    0.8172    1.0000 </r>
       <r>    0.9614    1.0000 </r>
       <r>    0.9650    1.0000 </r>
[...]
       <r>    5.6029    1.0000 </r>
       <r>    5.6151    1.0000 </r>
       <r>    7.5938    0.0000 </r>
       <r>    7.6173    0.0000 </r>
       <r>    7.6173    0.0000 </r>
       <r>    7.6501    0.0000 </r>
       <r>    8.3244    0.0000 </r>
       <r>    8.3536    0.0000 </r>
       <r>    8.3536    0.0000 </r>
       <r>    8.3855    0.0000 </r>
       <r>    8.8459    0.0000 </r>
       <r>    8.8566    0.0000 </r>
       <r>    8.8757    0.0000 </r>
       <r>    8.8757    0.0000 </r>
       <r>    9.1466    0.0000 </r>
       <r>    9.1599    0.0000 </r>
       <r>    9.1864    0.0000 </r>
       <r>    9.1864    0.0000 </r>
       <r>    9.2783    0.0000 </r>
       <r>    9.2783    0.0000 </r>
       <r>    9.3022    0.0000 </r>
       <r>    9.3320    0.0000 </r>
       <r>    9.3658    0.0000 </r>
       <r>    9.3658    0.0000 </r>
       <r>    9.3756    0.0000 </r>
       <r>    9.4001    0.0000 </r>
       <r>   10.1382    0.0000 </r>
       <r>   10.1382    0.0000 </r>
       <r>   10.1504    0.0000 </r>
       <r>   10.1662    0.0000 </r>
       <r>   10.2126    0.0000 </r>
       <r>   10.2126    0.0000 </r>
       <r>   10.2145    0.0000 </r>
       <r>   10.2275    0.0000 </r>
       <r>   10.8119    0.0000 </r>
       <r>   10.8119    0.0000 </r>
       <r>   10.8130    0.0000 </r>
       <r>   10.8943    0.0000 </r>
       <r>   10.8990    0.0000 </r>
       <r>   10.8995    0.0000 </r>
       <r>   10.9011    0.0000 </r>
       <r>   10.9015    0.0000 </r>
      </set>
     </set>
    </set>
   </array>
  </eigenvalues>
  <separator name="orbital magnetization" >
   <v name="MAGDIPOLOUT">      0.00000000      0.00000000      0.00000000</v>
  </separator>
  <dos>
   <i name="efermi">      6.20538950 </i>
   <total>
    <array>
     <dimension dim="1">gridpoints</dimension>
     <dimension dim="2">spin</dimension>
     <field>energy</field>
     <field>total</field>
     <field>integrated</field>
     <set>
      <set comment="spin 1">
       <r>   -18.5363     0.0000     0.0000 </r>
       <r>   -18.4329     0.0000     0.0000 </r>
       <r>   -18.3294     0.0000     0.0000 </r>
       <r>   -18.2259     0.0000     0.0000 </r>
       <r>   -18.1225     0.0000     0.0000 </r>
       <r>   -18.0190     0.0000     0.0000 </r>
       <r>   -17.9155     0.0000     0.0000 </r>
       <r>   -17.8121     0.0000     0.0000 </r>
       <r>   -17.7086     0.0000     0.0000 </r>
       <r>   -17.6051     0.0000     0.0000 </r>
       <r>   -17.5017     0.0000     0.0000 </r>
       <r>   -17.3982     0.0000     0.0000 </r>
       <r>   -17.2948     0.0000     0.0000 </r>
       <r>   -17.1913     1.5984     0.1654 </r>
       <r>   -17.0878   131.2950    13.7497 </r>
       <r>   -16.9844   293.5462    44.1211 </r>
       <r>   -16.8809   978.5357   145.3641 </r>
       <r>   -16.7774   141.3906   159.9929 </r>
       <r>   -16.6740     0.0684   160.0000 </r>
       <r>   -16.5705     0.0000   160.0000 </r>
       <r>   -16.4670     0.0000   160.0000 </r>
       <r>   -16.3636     0.0000   160.0000 </r>
       <r>   -16.2601     0.0000   160.0000 </r>
       <r>   -16.1567     0.0000   160.0000 </r>
       <r>   -16.0532     0.0000   160.0000 </r>
       <r>   -15.9497     0.0000   160.0000 </r>
       <r>   -15.8463     0.0000   160.0000 </r>
       <r>   -15.7428     0.0000   160.0000 </r>
       <r>   -15.6393     0.0000   160.0000 </r>
       <r>   -15.5359     0.0000   160.0000 </r>
       <r>   -15.4324     0.0000   160.0000 </r>
       <r>   -15.3289     0.0000   160.0000 </r>
       <r>   -15.2255     0.0000   160.0000 </r>
       <r>   -15.1220     0.0000   160.0000 </r>
       <r>   -15.0186     0.0000   160.0000 </r>
       <r>   -14.9151     0.0000   160.0000 </r>
       <r>   -14.8116     0.0000   160.0000 </r>
       <r>   -14.7082     0.0000   160.0000 </r>
       <r>   -14.6047     0.0000   160.0000 </r>
       <r>   -14.5012     0.0000   160.0000 </r>
       <r>   -14.3978     0.0000   160.0000 </r>
       <r>   -14.2943     0.0000   160.0000 </r>
       <r>   -14.1908     0.0000   160.0000 </r>
       <r>   -14.0874     0.0000   160.0000 </r>
       <r>   -13.9839     0.0000   160.0000 </r>
       <r>   -13.8805     0.0000   160.0000 </r>
       <r>   -13.7770     0.0000   160.0000 </r>
       <r>   -13.6735     0.0000   160.0000 </r>
       <r>   -13.5701     0.0000   160.0000 </r>
       <r>   -13.4666     0.0000   160.0000 </r>
       <r>   -13.3631     0.0011   160.0001 </r>
       <r>   -13.2597     0.8252   160.0855 </r>
       <r>   -13.1562     5.6130   160.6662 </r>
       <r>   -13.0527    10.7773   161.7813 </r>
       <r>   -12.9493     4.7443   162.2722 </r>
       <r>   -12.8458     9.0573   163.2093 </r>
       <r>   -12.7423    18.2227   165.0946 </r>
       <r>   -12.6389     1.7129   165.2719 </r>
       <r>   -12.5354     7.7527   166.0740 </r>
       <r>   -12.4320    15.7620   167.7048 </r>
       <r>   -12.3285    14.8252   169.2387 </r>
       <r>   -12.2250    11.4942   170.4279 </r>
       <r>   -12.1216     7.9467   171.2501 </r>
       <r>   -12.0181     9.9610   172.2807 </r>
       <r>   -11.9146    30.8169   175.4691 </r>
       <r>   -11.8112    18.8737   177.4219 </r>
       <r>   -11.7077    20.2414   179.5161 </r>
       <r>   -11.6042    21.3401   181.7241 </r>
       <r>   -11.5008    38.2393   185.6804 </r>
       <r>   -11.3973     3.7241   186.0658 </r>
       <r>   -11.2939    16.2603   187.7481 </r>
       <r>   -11.1904    19.2853   189.7434 </r>
       <r>   -11.0869    11.0580   190.8876 </r>
       <r>   -10.9835    10.0877   191.9313 </r>
       <r>   -10.8800     0.6640   192.0000 </r>
       <r>   -10.7765     0.0004   192.0000 </r>
       <r>   -10.6731     0.0000   192.0000 </r>
       <r>   -10.5696     0.0000   192.0000 </r>
       <r>   -10.4661     0.0000   192.0000 </r>
       <r>   -10.3627     0.0000   192.0000 </r>
       <r>   -10.2592     0.0000   192.0000 </r>
       <r>   -10.1558     0.0000   192.0000 </r>
       <r>   -10.0523     0.0000   192.0000 </r>
       <r>    -9.9488     0.0000   192.0000 </r>
       <r>    -9.8454     0.0000   192.0000 </r>
       <r>    -9.7419     0.0000   192.0000 </r>
       <r>    -9.6384     0.0000   192.0000 </r>
       <r>    -9.5350     0.0000   192.0000 </r>
       <r>    -9.4315     0.0000   192.0000 </r>
       <r>    -9.3280     0.0000   192.0000 </r>
       <r>    -9.2246     0.0000   192.0000 </r>
       <r>    -9.1211     0.0000   192.0000 </r>
       <r>    -9.0177     0.0000   192.0000 </r>
       <r>    -8.9142     0.0000   192.0000 </r>
       <r>    -8.8107     0.0000   192.0000 </r>
       <r>    -8.7073     0.0000   192.0000 </r>
       <r>    -8.6038     0.0000   192.0000 </r>
       <r>    -8.5003     0.0000   192.0000 </r>
       <r>    -8.3969     0.0000   192.0000 </r>
       <r>    -8.2934     0.0000   192.0000 </r>
       <r>    -8.1899     0.0000   192.0000 </r>
       <r>    -8.0865     0.0000   192.0000 </r>
       <r>    -7.9830     0.0000   192.0000 </r>
       <r>    -7.8795     0.0000   192.0000 </r>
       <r>    -7.7761     0.0000   192.0000 </r>
       <r>    -7.6726     0.0000   192.0000 </r>
       <r>    -7.5692     0.0000   192.0000 </r>
       <r>    -7.4657     0.0000   192.0000 </r>
       <r>    -7.3622     0.0000   192.0000 </r>
       <r>    -7.2588     0.0000   192.0000 </r>
       <r>    -7.1553     0.0000   192.0000 </r>
       <r>    -7.0518     0.0000   192.0000 </r>
       <r>    -6.9484     0.0000   192.0000 </r>
       <r>    -6.8449     0.0000   192.0000 </r>
       <r>    -6.7414     0.0000   192.0000 </r>
       <r>    -6.6380     0.0001   192.0000 </r>
       <r>    -6.5345     0.1148   192.0119 </r>
       <r>    -6.4311     1.0316   192.1186 </r>
       <r>    -6.3276     3.4753   192.4782 </r>
       <r>    -6.2241     4.6399   192.9583 </r>
       <r>    -6.1207     3.3807   193.3080 </r>
       <r>    -6.0172     8.8137   194.2199 </r>
       <r>    -5.9137    11.2775   195.3867 </r>
       <r>    -5.8103     6.1466   196.0227 </r>
       <r>    -5.7068    10.2504   197.0832 </r>
       <r>    -5.6033     9.8010   198.0973 </r>
       <r>    -5.4999    13.0770   199.4503 </r>
       <r>    -5.3964    12.2818   200.7210 </r>
       <r>    -5.2930    16.3890   202.4167 </r>
       <r>    -5.1895    11.8559   203.6433 </r>
       <r>    -5.0860    18.9288   205.6018 </r>
       <r>    -4.9826    11.9007   206.8331 </r>
       <r>    -4.8791     8.1727   207.6787 </r>
       <r>    -4.7756    16.8485   209.4219 </r>
       <r>    -4.6722    17.5942   211.2422 </r>
       <r>    -4.5687    35.8401   214.9504 </r>
       <r>    -4.4652    32.4393   218.3067 </r>
       <r>    -4.3618    40.0274   222.4481 </r>
       <r>    -4.2583    22.4567   224.7715 </r>
       <r>    -4.1549     8.6578   225.6673 </r>
       <r>    -4.0514    15.8252   227.3046 </r>
       <r>    -3.9479    19.2788   229.2993 </r>
       <r>    -3.8445    13.3155   230.6770 </r>
       <r>    -3.7410     9.4277   231.6524 </r>
       <r>    -3.6375     7.6217   232.4409 </r>
       <r>    -3.5341     8.6473   233.3356 </r>
       <r>    -3.4306    10.9905   234.4728 </r>
       <r>    -3.3271     2.6738   234.7494 </r>
       <r>    -3.2237     0.0072   234.7501 </r>
       <r>    -3.1202     3.3842   235.1003 </r>
       <r>    -3.0167    15.8729   236.7425 </r>
       <r>    -2.9133     8.2461   237.5957 </r>
       <r>    -2.8098     1.8571   237.7879 </r>
       <r>    -2.7064     2.5033   238.0469 </r>
       <r>    -2.6029     3.8781   238.4481 </r>
       <r>    -2.4994     6.0386   239.0729 </r>
       <r>    -2.3960     2.4347   239.3248 </r>
       <r>    -2.2925     3.4931   239.6862 </r>
       <r>    -2.1890     1.7702   239.8694 </r>
       <r>    -2.0856     0.5373   239.9249 </r>
       <r>    -1.9821     0.5485   239.9817 </r>
       <r>    -1.8786     0.1766   240.0000 </r>
       <r>    -1.7752     0.0004   240.0000 </r>
       <r>    -1.6717     0.0000   240.0000 </r>
       <r>    -1.5683     0.0000   240.0000 </r>
       <r>    -1.4648     0.0000   240.0000 </r>
       <r>    -1.3613     0.0000   240.0000 </r>
       <r>    -1.2579     0.0000   240.0000 </r>
       <r>    -1.1544     0.0000   240.0000 </r>
       <r>    -1.0509     0.0000   240.0000 </r>
       <r>    -0.9475     0.0000   240.0000 </r>
       <r>    -0.8440     0.0000   240.0000 </r>
       <r>    -0.7405     0.0000   240.0000 </r>
       <r>    -0.6371     0.0000   240.0000 </r>
       <r>    -0.5336     0.0000   240.0000 </r>
       <r>    -0.4302     0.0000   240.0000 </r>
       <r>    -0.3267     0.0000   240.0000 </r>
       <r>    -0.2232     0.0000   240.0000 </r>
       <r>    -0.1198     0.0000   240.0000 </r>
       <r>    -0.0163     0.0000   240.0000 </r>
       <r>     0.0872     0.0002   240.0000 </r>
       <r>     0.1906     0.3174   240.0329 </r>
       <r>     0.2941     3.3839   240.3830 </r>
       <r>     0.3976     9.6717   241.3836 </r>
       <r>     0.5010    31.8454   244.6785 </r>
       <r>     0.6045    28.6125   247.6388 </r>
       <r>     0.7079    37.5152   251.5203 </r>
       <r>     0.8114    25.0033   254.1072 </r>
       <r>     0.9149    15.0358   255.6629 </r>
       <r>     1.0183    16.4805   257.3680 </r>
       <r>     1.1218    36.8044   261.1760 </r>
       <r>     1.2253    15.6528   262.7955 </r>
       <r>     1.3287    13.1454   264.1555 </r>
       <r>     1.4322    14.8176   265.6886 </r>
       <r>     1.5357    38.5559   269.6778 </r>
       <r>     1.6391     8.6034   270.5679 </r>
       <r>     1.7426    14.7268   272.0916 </r>
       <r>     1.8461    19.1243   274.0703 </r>
       <r>     1.9495    32.4455   277.4272 </r>
       <r>     2.0530    32.0203   280.7401 </r>
       <r>     2.1564    31.4089   283.9898 </r>
       <r>     2.2599    24.3862   286.5129 </r>
       <r>     2.3634    24.6006   289.0582 </r>
       <r>     2.4668    27.7186   291.9261 </r>
       <r>     2.5703    36.5691   295.7096 </r>
       <r>     2.6738    33.5492   299.1808 </r>
       <r>     2.7772    28.1189   302.0901 </r>
       <r>     2.8807    19.5384   304.1116 </r>
       <r>     2.9842    27.0340   306.9086 </r>
       <r>     3.0876    22.0957   309.1947 </r>
       <r>     3.1911    12.3549   310.4730 </r>
       <r>     3.2945    19.4973   312.4903 </r>
       <r>     3.3980    34.7743   316.0882 </r>
       <r>     3.5015    53.0886   321.5809 </r>
       <r>     3.6049    21.6488   323.8208 </r>
       <r>     3.7084    24.9743   326.4047 </r>
       <r>     3.8119    26.6455   329.1616 </r>
       <r>     3.9153    34.2852   332.7088 </r>
       <r>     4.0188    14.6431   334.2239 </r>
       <r>     4.1223    22.2940   336.5305 </r>
       <r>     4.2257    28.7148   339.5014 </r>
       <r>     4.3292    14.0766   340.9579 </r>
       <r>     4.4326    14.5603   342.4643 </r>
       <r>     4.5361    16.1105   344.1312 </r>
       <r>     4.6396    16.0468   345.7914 </r>
       <r>     4.7430    14.2984   347.2708 </r>
       <r>     4.8465    18.3459   349.1689 </r>
       <r>     4.9500    55.0541   354.8651 </r>
       <r>     5.0534    49.0707   359.9421 </r>
       <r>     5.1569    60.3367   366.1848 </r>
       <r>     5.2604    30.8057   369.3720 </r>
       <r>     5.3638    29.5221   372.4265 </r>
       <r>     5.4673    19.9665   374.4923 </r>
       <r>     5.5707    29.0773   377.5008 </r>
       <r>     5.6742    26.3275   380.2247 </r>
       <r>     5.7777    20.1145   382.3058 </r>
       <r>     5.8811     6.7979   383.0092 </r>
       <r>     5.9846     6.0640   383.6366 </r>
       <r>     6.0881     3.1713   383.9647 </r>
       <r>     6.1915     0.3414   384.0000 </r>
       <r>     6.2950     0.0296   384.0031 </r>
       <r>     6.3985     0.3450   384.0387 </r>
       <r>     6.5019     0.0956   384.0486 </r>
       <r>     6.6054     0.6888   384.1199 </r>
       <r>     6.7089     0.0493   384.1250 </r>
       <r>     6.8123     0.2379   384.1496 </r>
       <r>     6.9158     1.4799   384.3027 </r>
       <r>     7.0192     0.2947   384.3332 </r>
       <r>     7.1227     0.5122   384.3862 </r>
       <r>     7.2262     2.2457   384.6186 </r>
       <r>     7.3296     4.3665   385.0704 </r>
       <r>     7.4331     3.6107   385.4439 </r>
       <r>     7.5366     6.5406   386.1206 </r>
       <r>     7.6400     5.9660   386.7379 </r>
       <r>     7.7435     9.4993   387.7207 </r>
       <r>     7.8470    10.0069   388.7561 </r>
       <r>     7.9504     9.4966   389.7386 </r>
       <r>     8.0539     8.2564   390.5929 </r>
       <r>     8.1573     8.7247   391.4956 </r>
       <r>     8.2608     8.3923   392.3639 </r>
       <r>     8.3643    30.4904   395.5185 </r>
       <r>     8.4677    26.9283   398.3046 </r>
       <r>     8.5712    24.6549   400.8555 </r>
       <r>     8.6747    15.9912   402.5100 </r>
       <r>     8.7781    34.7972   406.1103 </r>
       <r>     8.8816    18.2072   407.9941 </r>
       <r>     8.9851    20.3919   410.1039 </r>
       <r>     9.0885    22.1304   412.3936 </r>
       <r>     9.1920    22.5566   414.7274 </r>
       <r>     9.2954    29.4491   417.7743 </r>
       <r>     9.3989    26.0344   420.4679 </r>
       <r>     9.5024    21.6643   422.7094 </r>
       <r>     9.6058    32.1098   426.0316 </r>
       <r>     9.7093    32.4082   429.3846 </r>
       <r>     9.8128    28.7369   432.3579 </r>
       <r>     9.9162    23.0695   434.7447 </r>
       <r>    10.0197    22.5896   437.0819 </r>
       <r>    10.1232    22.5174   439.4117 </r>
       <r>    10.2266    18.3772   441.3130 </r>
       <r>    10.3301    17.0325   443.0753 </r>
       <r>    10.4335    22.7286   445.4269 </r>
       <r>    10.5370    17.5831   447.2461 </r>
       <r>    10.6405    40.2467   451.4102 </r>
       <r>    10.7439    39.9629   455.5449 </r>
       <r>    10.8474    42.3570   459.9273 </r>
       <r>    10.9509    26.1544   462.6333 </r>
       <r>    11.0543     9.6671   463.6335 </r>
       <r>    11.1578     3.5035   463.9960 </r>
       <r>    11.2613     0.0386   464.0000 </r>
       <r>    11.3647     0.0000   464.0000 </r>
       <r>    11.4682     0.0000   464.0000 </r>
       <r>    11.5716     0.0000   464.0000 </r>
       <r>    11.6751     0.0000   464.0000 </r>
       <r>    11.7786     0.0000   464.0000 </r>
       <r>    11.8820     0.0000   464.0000 </r>
       <r>    11.9855     0.0000   464.0000 </r>
       <r>    12.0890     0.0000   464.0000 </r>
       <r>    12.1924     0.0000   464.0000 </r>
       <r>    12.2959     0.0000   464.0000 </r>
       <r>    12.3994     0.0000   464.0000 </r>
       <r>    12.5028     0.0000   464.0000 </r>
      </set>
     </set>
    </array>
   </total>
  </dos>
 </calculation>
 <structure name="finalpos" >
  <crystal>
   <varray name="basis" >
    <v>       7.91856064       0.00000000       0.00000000 </v>
    <v>       0.00000000       7.91856064       0.00000000 </v>
    <v>       0.00000000       0.00000000      12.49642882 </v>
   </varray>
   <i name="volume">    783.57110688 </i>
   <varray name="rec_basis" >
    <v>       0.12628558       0.00000000       0.00000000 </v>
    <v>       0.00000000       0.12628558       0.00000000 </v>
    <v>       0.00000000       0.00000000       0.08002286 </v>
   </varray>
  </crystal>
  <varray name="positions" >
   <v>       0.24896648       0.24896648       0.85282018 </v>
   <v>       0.75103352       0.24896648       0.85282018 </v>
   <v>       0.24896648       0.75103352       0.85282018 </v>
   <v>       0.75103352       0.75103352       0.85282018 </v>
   <v>       0.00000000       1.00000000       0.64817253 </v>
   <v>       0.50000000       0.00000000       0.64898003 </v>
   <v>       0.00000000       0.50000000       0.64898003 </v>
   <v>       0.50000000       0.50000000       0.64989748 </v>
   <v>       0.00000000       0.00000000       0.35182747 </v>
   <v>       0.50000000       1.00000000       0.35101997 </v>
   <v>       0.00000000       0.50000000       0.35101997 </v>
   <v>       0.50000000       0.50000000       0.35010252 </v>
   <v>       0.24896648       0.24896648       0.14717982 </v>
   <v>       0.75103352       0.24896648       0.14717982 </v>
   <v>       0.24896648       0.75103352       0.14717982 </v>
   <v>       0.75103352       0.75103352       0.14717982 </v>
   <v>       0.50000000       0.00000000       1.00000000 </v>
   <v>       0.00000000       0.50000000       1.00000000 </v>
   <v>       0.50000000       0.50000000       1.00000000 </v>
   <v>       0.24993715       0.24993715       0.50000000 </v>
   <v>       0.75006285       0.24993715       0.50000000 </v>
   <v>       0.24993715       0.75006285       0.50000000 </v>
   <v>       0.75006285       0.75006285       0.50000000 </v>
   <v>       0.00000000       0.24960060       0.75054733 </v>
   <v>       0.50000000       0.24973701       0.75132360 </v>
   <v>       0.00000000       0.75039940       0.75054733 </v>
   <v>       0.50000000       0.75026299       0.75132360 </v>
   <v>       0.24960060       1.00000000       0.75054733 </v>
   <v>       0.75039940       1.00000000       0.75054733 </v>
   <v>       0.24973701       0.50000000       0.75132360 </v>
   <v>       0.75026299       0.50000000       0.75132360 </v>
   <v>       0.24960060       0.00000000       0.24945267 </v>
   <v>       0.75039940       1.00000000       0.24945267 </v>
   <v>       0.24973701       0.50000000       0.24867640 </v>
   <v>       0.75026299       0.50000000       0.24867640 </v>
   <v>       0.00000000       0.24960060       0.24945267 </v>
   <v>       0.50000000       0.24973701       0.24867640 </v>
   <v>       0.00000000       0.75039940       0.24945267 </v>
   <v>       0.50000000       0.75026299       0.24867640 </v>
   <v>       0.00000000       0.00000000       1.00000000 </v>
  </varray>
 </structure>
</modeling>
