unknown system                          
           1
     7.918561    0.000000    0.000000
     0.000000    7.918561    0.000000
     0.000000    0.000000   12.496429
   Bi   Se   O    S 
    16     7    16     1
Direct configuration=     1
   0.24896654  0.24896654  0.85282021
   0.75103346  0.24896654  0.85282021
   0.24896654  0.75103346  0.85282021
   0.75103346  0.75103346  0.85282021
   0.00000000  0.00000000  0.64817251
   0.50000000  0.00000000  0.64898001
   0.00000000  0.50000000  0.64898001
   0.50000000  0.50000000  0.64989744
   0.00000000  0.00000000  0.35182749
   0.50000000  0.00000000  0.35101999
   0.00000000  0.50000000  0.35101999
   0.50000000  0.50000000  0.35010256
   0.24896654  0.24896654  0.14717979
   0.75103346  0.24896654  0.14717979
   0.24896654  0.75103346  0.14717979
   0.75103346  0.75103346  0.14717979
   0.50000000  0.00000000  0.00000000
   0.00000000  0.50000000  0.00000000
   0.50000000  0.50000000  0.00000000
   0.24993716  0.24993716  0.50000000
   0.75006284  0.24993716  0.50000000
   0.24993716  0.75006284  0.50000000
   0.75006284  0.75006284  0.50000000
   0.00000000  0.24960066  0.75054733
   0.50000000  0.24973705  0.75132359
   0.00000000  0.75039934  0.75054733
   0.50000000  0.75026295  0.75132359
   0.24960066  0.00000000  0.75054733
   0.75039934  0.00000000  0.75054733
   0.24973705  0.50000000  0.75132359
   0.75026295  0.50000000  0.75132359
   0.24960066  0.00000000  0.24945267
   0.75039934  0.00000000  0.24945267
   0.24973705  0.50000000  0.24867641
   0.75026295  0.50000000  0.24867641
   0.00000000  0.24960066  0.24945267
   0.50000000  0.24973705  0.24867641
   0.00000000  0.75039934  0.24945267
   0.50000000  0.75026295  0.24867641
   0.00000000  0.00000000  0.00000000
Direct configuration=     2
   0.24896648  0.24896648  0.85282018
   0.75103352  0.24896648  0.85282018
   0.24896648  0.75103352  0.85282018
   0.75103352  0.75103352  0.85282018
   0.00000000  1.00000000  0.64817253
   0.50000000  0.00000000  0.64898003
   0.00000000  0.50000000  0.64898003
   0.50000000  0.50000000  0.64989748
   0.00000000  0.00000000  0.35182747
   0.50000000  1.00000000  0.35101997
   0.00000000  0.50000000  0.35101997
   0.50000000  0.50000000  0.35010252
   0.24896648  0.24896648  0.14717982
   0.75103352  0.24896648  0.14717982
   0.24896648  0.75103352  0.14717982
   0.75103352  0.75103352  0.14717982
   0.50000000  0.00000000  1.00000000
   0.00000000  0.50000000  1.00000000
   0.50000000  0.50000000  1.00000000
   0.24993715  0.24993715  0.50000000
   0.75006285  0.24993715  0.50000000
   0.24993715  0.75006285  0.50000000
   0.75006285  0.75006285  0.50000000
   0.00000000  0.24960059  0.75054733
   0.50000000  0.24973701  0.75132360
   0.00000000  0.75039941  0.75054733
   0.50000000  0.75026299  0.75132360
   0.24960059  1.00000000  0.75054733
   0.75039941  1.00000000  0.75054733
   0.24973701  0.50000000  0.75132360
   0.75026299  0.50000000  0.75132360
   0.24960059  0.00000000  0.24945267
   0.75039941  1.00000000  0.24945267
   0.24973701  0.50000000  0.24867640
   0.75026299  0.50000000  0.24867640
   0.00000000  0.24960059  0.24945267
   0.50000000  0.24973701  0.24867640
   0.00000000  0.75039941  0.24945267
   0.50000000  0.75026299  0.24867640
   0.00000000  0.00000000  1.00000000
Direct configuration=     3
   0.24896649  0.24896649  0.85282018
   0.75103351  0.24896649  0.85282018
   0.24896649  0.75103351  0.85282018
   0.75103351  0.75103351  0.85282018
   0.00000000  0.00000000  0.64817253
   0.50000000  0.00000000  0.64898002
   0.00000000  0.50000000  0.64898002
   0.50000000  0.50000000  0.64989747
   0.00000000  0.00000000  0.35182747
   0.50000000  0.00000000  0.35101998
   0.00000000  0.50000000  0.35101998
   0.50000000  0.50000000  0.35010253
   0.24896649  0.24896649  0.14717982
   0.75103351  0.24896649  0.14717982
   0.24896649  0.75103351  0.14717982
   0.75103351  0.75103351  0.14717982
   0.50000000  0.00000000  0.00000000
   0.00000000  0.50000000  0.00000000
   0.50000000  0.50000000  0.00000000
   0.24993715  0.24993715  0.50000000
   0.75006285  0.24993715  0.50000000
   0.24993715  0.75006285  0.50000000
   0.75006285  0.75006285  0.50000000
   0.00000000  0.24960061  0.75054733
   0.50000000  0.24973702  0.75132360
   0.00000000  0.75039939  0.75054733
   0.50000000  0.75026298  0.75132360
   0.24960061  0.00000000  0.75054733
   0.75039939  0.00000000  0.75054733
   0.24973702  0.50000000  0.75132360
   0.75026298  0.50000000  0.75132360
   0.24960061  0.00000000  0.24945267
   0.75039939  0.00000000  0.24945267
   0.24973702  0.50000000  0.24867640
   0.75026298  0.50000000  0.24867640
   0.00000000  0.24960061  0.24945267
   0.50000000  0.24973702  0.24867640
   0.00000000  0.75039939  0.24945267
   0.50000000  0.75026298  0.24867640
   0.00000000  0.00000000  0.00000000
Direct configuration=     4
   0.24896648  0.24896648  0.85282018
   0.75103352  0.24896648  0.85282018
   0.24896648  0.75103352  0.85282018
   0.75103352  0.75103352  0.85282018
   0.00000000  1.00000000  0.64817253
   0.50000000  0.00000000  0.64898003
   0.00000000  0.50000000  0.64898003
   0.50000000  0.50000000  0.64989748
   0.00000000  0.00000000  0.35182747
   0.50000000  1.00000000  0.35101997
   0.00000000  0.50000000  0.35101997
   0.50000000  0.50000000  0.35010252
   0.24896648  0.24896648  0.14717982
   0.75103352  0.24896648  0.14717982
   0.24896648  0.75103352  0.14717982
   0.75103352  0.75103352  0.14717982
   0.50000000  0.00000000  1.00000000
   0.00000000  0.50000000  1.00000000
   0.50000000  0.50000000  1.00000000
   0.24993715  0.24993715  0.50000000
   0.75006285  0.24993715  0.50000000
   0.24993715  0.75006285  0.50000000
   0.75006285  0.75006285  0.50000000
   0.00000000  0.24960060  0.75054733
   0.50000000  0.24973701  0.75132360
   0.00000000  0.75039940  0.75054733
   0.50000000  0.75026299  0.75132360
   0.24960060  1.00000000  0.75054733
   0.75039940  1.00000000  0.75054733
   0.24973701  0.50000000  0.75132360
   0.75026299  0.50000000  0.75132360
   0.24960060  0.00000000  0.24945267
   0.75039940  1.00000000  0.24945267
   0.24973701  0.50000000  0.24867640
   0.75026299  0.50000000  0.24867640
   0.00000000  0.24960060  0.24945267
   0.50000000  0.24973701  0.24867640
   0.00000000  0.75039940  0.24945267
   0.50000000  0.75026299  0.24867640
   0.00000000  0.00000000  1.00000000
