  40  40   0   0
  0.1929979E+02  0.7879360E-09  0.7879360E-09  0.1243457E-08  0.5000000E-15
  1.000000000000000E-004
  CAR 
 unknown system                          
     12.78298089    -18.36174309  301      6.36870877      1.00000000
    -18.362  0.0000E+00  0.0000E+00
    -18.258  0.0000E+00  0.0000E+00
    -18.154  0.0000E+00  0.0000E+00
    -18.050  0.0000E+00  0.0000E+00
    -17.946  0.0000E+00  0.0000E+00
    -17.843  0.0000E+00  0.0000E+00
    -17.739  0.0000E+00  0.0000E+00
    -17.635  0.0000E+00  0.0000E+00
    -17.531  0.0000E+00  0.0000E+00
    -17.427  0.0000E+00  0.0000E+00
    -17.324  0.0000E+00  0.0000E+00
    -17.220  0.4739E-15  0.4920E-16
    -17.116  0.1477E-06  0.1534E-07
    -17.012  0.1499E-01  0.1556E-02
    -16.908  0.1282E+01  0.1347E+00
    -16.805  0.2524E+01  0.3967E+00
    -16.701  0.9607E+01  0.1394E+01
    -16.597  0.1982E+01  0.1600E+01
    -16.493  0.1727E-02  0.1600E+01
    -16.389  0.7002E-09  0.1600E+01
    -16.285  0.0000E+00  0.1600E+01
    -16.182  0.0000E+00  0.1600E+01
    -16.078  0.0000E+00  0.1600E+01
    -15.974  0.0000E+00  0.1600E+01
    -15.870  0.0000E+00  0.1600E+01
    -15.766  0.0000E+00  0.1600E+01
    -15.663  0.0000E+00  0.1600E+01
    -15.559  0.0000E+00  0.1600E+01
    -15.455  0.0000E+00  0.1600E+01
    -15.351  0.0000E+00  0.1600E+01
    -15.247  0.0000E+00  0.1600E+01
    -15.143  0.0000E+00  0.1600E+01
    -15.040  0.0000E+00  0.1600E+01
    -14.936  0.0000E+00  0.1600E+01
    -14.832  0.0000E+00  0.1600E+01
    -14.728  0.0000E+00  0.1600E+01
    -14.624  0.0000E+00  0.1600E+01
    -14.521  0.0000E+00  0.1600E+01
    -14.417  0.0000E+00  0.1600E+01
    -14.313  0.0000E+00  0.1600E+01
    -14.209  0.0000E+00  0.1600E+01
    -14.105  0.0000E+00  0.1600E+01
    -14.001  0.0000E+00  0.1600E+01
    -13.898  0.0000E+00  0.1600E+01
    -13.794  0.0000E+00  0.1600E+01
    -13.690  0.0000E+00  0.1600E+01
    -13.586  0.0000E+00  0.1600E+01
    -13.482  0.0000E+00  0.1600E+01
    -13.379  0.2109E-12  0.1600E+01
    -13.275  0.1642E-05  0.1600E+01
    -13.171  0.4389E-02  0.1600E+01
    -13.067  0.4039E-01  0.1605E+01
    -12.963  0.1027E+00  0.1615E+01
    -12.860  0.6875E-01  0.1622E+01
    -12.756  0.5619E-01  0.1628E+01
    -12.652  0.1829E+00  0.1647E+01
    -12.548  0.5047E-01  0.1653E+01
    -12.444  0.4246E-01  0.1657E+01
    -12.340  0.1207E+00  0.1669E+01
    -12.237  0.2026E+00  0.1690E+01
    -12.133  0.5328E-01  0.1696E+01
    -12.029  0.1535E+00  0.1712E+01
    -11.925  0.1829E-01  0.1714E+01
    -11.821  0.2893E+00  0.1744E+01
    -11.718  0.2105E+00  0.1766E+01
    -11.614  0.1839E+00  0.1785E+01
    -11.510  0.1409E+00  0.1799E+01
    -11.406  0.4242E+00  0.1843E+01
    -11.302  0.1361E+00  0.1858E+01
    -11.198  0.7489E-01  0.1865E+01
    -11.095  0.2318E+00  0.1889E+01
    -10.991  0.9393E-01  0.1899E+01
    -10.887  0.1456E+00  0.1914E+01
    -10.783  0.5349E-01  0.1920E+01
    -10.679  0.1247E-02  0.1920E+01
    -10.576  0.5695E-07  0.1920E+01
    -10.472  0.6969E-15  0.1920E+01
    -10.368  0.0000E+00  0.1920E+01
    -10.264  0.0000E+00  0.1920E+01
    -10.160  0.0000E+00  0.1920E+01
    -10.056  0.0000E+00  0.1920E+01
     -9.953  0.0000E+00  0.1920E+01
     -9.849  0.0000E+00  0.1920E+01
     -9.745  0.0000E+00  0.1920E+01
     -9.641  0.0000E+00  0.1920E+01
     -9.537  0.0000E+00  0.1920E+01
     -9.434  0.0000E+00  0.1920E+01
     -9.330  0.0000E+00  0.1920E+01
     -9.226  0.0000E+00  0.1920E+01
     -9.122  0.0000E+00  0.1920E+01
     -9.018  0.0000E+00  0.1920E+01
     -8.915  0.0000E+00  0.1920E+01
     -8.811  0.0000E+00  0.1920E+01
     -8.707  0.0000E+00  0.1920E+01
     -8.603  0.0000E+00  0.1920E+01
     -8.499  0.0000E+00  0.1920E+01
     -8.395  0.0000E+00  0.1920E+01
     -8.292  0.0000E+00  0.1920E+01
     -8.188  0.0000E+00  0.1920E+01
     -8.084  0.0000E+00  0.1920E+01
     -7.980  0.0000E+00  0.1920E+01
     -7.876  0.0000E+00  0.1920E+01
     -7.773  0.0000E+00  0.1920E+01
     -7.669  0.0000E+00  0.1920E+01
     -7.565  0.0000E+00  0.1920E+01
     -7.461  0.0000E+00  0.1920E+01
     -7.357  0.0000E+00  0.1920E+01
     -7.253  0.0000E+00  0.1920E+01
     -7.150  0.0000E+00  0.1920E+01
     -7.046  0.0000E+00  0.1920E+01
     -6.942  0.0000E+00  0.1920E+01
     -6.838  0.0000E+00  0.1920E+01
     -6.734  0.1114E-17  0.1920E+01
     -6.631  0.4657E-09  0.1920E+01
     -6.527  0.5097E-04  0.1920E+01
     -6.423  0.3296E-02  0.1920E+01
     -6.319  0.1962E-01  0.1922E+01
     -6.215  0.4386E-01  0.1927E+01
     -6.111  0.3901E-01  0.1931E+01
     -6.008  0.3819E-01  0.1935E+01
     -5.904  0.1060E+00  0.1946E+01
     -5.800  0.9272E-01  0.1956E+01
     -5.696  0.6392E-01  0.1962E+01
     -5.592  0.9966E-01  0.1973E+01
     -5.489  0.1028E+00  0.1983E+01
     -5.385  0.1226E+00  0.1996E+01
     -5.281  0.1175E+00  0.2008E+01
     -5.177  0.1616E+00  0.2025E+01
     -5.073  0.1115E+00  0.2037E+01
     -4.970  0.1857E+00  0.2056E+01
     -4.866  0.1081E+00  0.2067E+01
     -4.762  0.7054E-01  0.2074E+01
     -4.658  0.1588E+00  0.2091E+01
     -4.554  0.1358E+00  0.2105E+01
     -4.450  0.2977E+00  0.2136E+01
     -4.347  0.3142E+00  0.2168E+01
     -4.243  0.4331E+00  0.2213E+01
     -4.139  0.2462E+00  0.2239E+01
     -4.035  0.1374E+00  0.2253E+01
     -3.931  0.9084E-01  0.2263E+01
     -3.828  0.2128E+00  0.2285E+01
     -3.724  0.1529E+00  0.2301E+01
     -3.620  0.1055E+00  0.2312E+01
     -3.516  0.8284E-01  0.2320E+01
     -3.412  0.7619E-01  0.2328E+01
     -3.308  0.9351E-01  0.2338E+01
     -3.205  0.8598E-01  0.2347E+01
     -3.101  0.7461E-02  0.2347E+01
     -2.997  0.4172E-03  0.2348E+01
     -2.893  0.9948E-01  0.2358E+01
     -2.789  0.1128E+00  0.2370E+01
     -2.686  0.7426E-01  0.2377E+01
     -2.582  0.1084E-01  0.2378E+01
     -2.478  0.3507E-01  0.2382E+01
     -2.374  0.3123E-01  0.2385E+01
     -2.270  0.6318E-01  0.2392E+01
     -2.166  0.1766E-01  0.2394E+01
     -2.063  0.3525E-01  0.2397E+01
     -1.959  0.1339E-01  0.2399E+01
     -1.855  0.5800E-02  0.2399E+01
     -1.751  0.4863E-02  0.2400E+01
     -1.647  0.1493E-02  0.2400E+01
     -1.544  0.2212E-05  0.2400E+01
     -1.440  0.1138E-11  0.2400E+01
     -1.336  0.0000E+00  0.2400E+01
     -1.232  0.0000E+00  0.2400E+01
     -1.128  0.0000E+00  0.2400E+01
     -1.025  0.0000E+00  0.2400E+01
     -0.921  0.0000E+00  0.2400E+01
     -0.817  0.0000E+00  0.2400E+01
     -0.713  0.0000E+00  0.2400E+01
     -0.609  0.0000E+00  0.2400E+01
     -0.505  0.0000E+00  0.2400E+01
     -0.402  0.0000E+00  0.2400E+01
     -0.298  0.0000E+00  0.2400E+01
     -0.194  0.0000E+00  0.2400E+01
     -0.090  0.0000E+00  0.2400E+01
      0.014  0.0000E+00  0.2400E+01
      0.117  0.8343E-11  0.2400E+01
      0.221  0.1033E-04  0.2400E+01
      0.325  0.6174E-02  0.2401E+01
      0.429  0.3770E-01  0.2405E+01
      0.533  0.1335E+00  0.2418E+01
      0.637  0.3133E+00  0.2451E+01
      0.740  0.2868E+00  0.2481E+01
      0.844  0.3621E+00  0.2518E+01
      0.948  0.2380E+00  0.2543E+01
      1.052  0.1500E+00  0.2559E+01
      1.156  0.1793E+00  0.2577E+01
      1.259  0.3583E+00  0.2614E+01
      1.363  0.1616E+00  0.2631E+01
      1.467  0.1131E+00  0.2643E+01
      1.571  0.1436E+00  0.2658E+01
      1.675  0.3873E+00  0.2698E+01
      1.779  0.8220E-01  0.2707E+01
      1.882  0.1755E+00  0.2725E+01
      1.986  0.2033E+00  0.2746E+01
      2.090  0.2706E+00  0.2774E+01
      2.194  0.3801E+00  0.2813E+01
      2.298  0.2864E+00  0.2843E+01
      2.401  0.2706E+00  0.2871E+01
      2.505  0.1978E+00  0.2892E+01
      2.609  0.2624E+00  0.2919E+01
      2.713  0.3267E+00  0.2953E+01
      2.817  0.3507E+00  0.2989E+01
      2.920  0.3223E+00  0.3023E+01
      3.024  0.1618E+00  0.3040E+01
      3.128  0.2604E+00  0.3067E+01
      3.232  0.2141E+00  0.3089E+01
      3.336  0.1537E+00  0.3105E+01
      3.440  0.1821E+00  0.3124E+01
      3.543  0.2939E+00  0.3154E+01
      3.647  0.5082E+00  0.3207E+01
      3.751  0.2827E+00  0.3236E+01
      3.855  0.1930E+00  0.3256E+01
      3.959  0.2686E+00  0.3284E+01
      4.062  0.3701E+00  0.3323E+01
      4.166  0.1796E+00  0.3341E+01
      4.270  0.1913E+00  0.3361E+01
      4.374  0.3325E+00  0.3396E+01
      4.478  0.1718E+00  0.3414E+01
      4.582  0.1478E+00  0.3429E+01
      4.685  0.1588E+00  0.3445E+01
      4.789  0.1771E+00  0.3464E+01
      4.893  0.9530E-01  0.3474E+01
      4.997  0.2492E+00  0.3500E+01
      5.101  0.5192E+00  0.3553E+01
      5.204  0.4862E+00  0.3604E+01
      5.308  0.5721E+00  0.3663E+01
      5.412  0.2949E+00  0.3694E+01
      5.516  0.2775E+00  0.3723E+01
      5.620  0.2186E+00  0.3745E+01
      5.724  0.2618E+00  0.3773E+01
      5.827  0.2586E+00  0.3799E+01
      5.931  0.2289E+00  0.3823E+01
      6.035  0.7351E-01  0.3831E+01
      6.139  0.6079E-01  0.3837E+01
      6.243  0.2576E-01  0.3840E+01
      6.346  0.1417E-02  0.3840E+01
      6.450  0.2664E-04  0.3840E+01
      6.554  0.2690E-02  0.3840E+01
      6.658  0.1322E-02  0.3840E+01
      6.762  0.4696E-02  0.3841E+01
      6.865  0.3299E-02  0.3841E+01
      6.969  0.8855E-03  0.3841E+01
      7.073  0.1070E-01  0.3842E+01
      7.177  0.7602E-02  0.3843E+01
      7.281  0.2140E-02  0.3843E+01
      7.385  0.1630E-01  0.3845E+01
      7.488  0.4391E-01  0.3850E+01
      7.592  0.2843E-01  0.3853E+01
      7.696  0.6582E-01  0.3859E+01
      7.800  0.4329E-01  0.3864E+01
      7.904  0.1056E+00  0.3875E+01
      8.007  0.8462E-01  0.3884E+01
      8.111  0.9340E-01  0.3893E+01
      8.215  0.9494E-01  0.3903E+01
      8.319  0.7655E-01  0.3911E+01
      8.423  0.7592E-01  0.3919E+01
      8.527  0.1997E+00  0.3940E+01
      8.630  0.3096E+00  0.3972E+01
      8.734  0.2634E+00  0.3999E+01
      8.838  0.1745E+00  0.4017E+01
      8.942  0.2389E+00  0.4042E+01
      9.046  0.3032E+00  0.4074E+01
      9.149  0.1639E+00  0.4091E+01
      9.253  0.2086E+00  0.4112E+01
      9.357  0.2373E+00  0.4137E+01
      9.461  0.2553E+00  0.4164E+01
      9.565  0.3163E+00  0.4196E+01
      9.669  0.1769E+00  0.4215E+01
      9.772  0.2963E+00  0.4246E+01
      9.876  0.2819E+00  0.4275E+01
      9.980  0.3171E+00  0.4308E+01
     10.084  0.2714E+00  0.4336E+01
     10.188  0.1954E+00  0.4356E+01
     10.291  0.2511E+00  0.4382E+01
     10.395  0.1582E+00  0.4399E+01
     10.499  0.1936E+00  0.4419E+01
     10.603  0.1769E+00  0.4437E+01
     10.707  0.2140E+00  0.4459E+01
     10.810  0.2432E+00  0.4485E+01
     10.914  0.4324E+00  0.4529E+01
     11.018  0.3418E+00  0.4565E+01
     11.122  0.4123E+00  0.4608E+01
     11.226  0.2246E+00  0.4631E+01
     11.330  0.6438E-01  0.4638E+01
     11.433  0.2160E-01  0.4640E+01
     11.537  0.2705E-03  0.4640E+01
     11.641  0.6229E-08  0.4640E+01
     11.745  0.3921E-16  0.4640E+01
     11.849  0.0000E+00  0.4640E+01
     11.952  0.0000E+00  0.4640E+01
     12.056  0.0000E+00  0.4640E+01
     12.160  0.0000E+00  0.4640E+01
     12.264  0.0000E+00  0.4640E+01
     12.368  0.0000E+00  0.4640E+01
     12.472  0.0000E+00  0.4640E+01
     12.575  0.0000E+00  0.4640E+01
     12.679  0.0000E+00  0.4640E+01
     12.783  0.0000E+00  0.4640E+01
