 vasp.6.4.3 19Mar24 (build Apr 09 2025 20:43:19) complex                        
  
 executed on             LinuxIFC date 2025.04.14  02:11:33
 running   36 mpi-ranks, on    1 nodes
 distrk:  each k-point on   36 cores,    1 groups
 distr:  one band on NCORE=   9 cores,    4 groups


--------------------------------------------------------------------------------------------------------


 INCAR:
   PREC = Accurate
   IBRION = 2
   NSW = 100
   NELMIN = 5
   ISIF = 2
   ENCUT = 520
   EDIFF = 1.000000e-08
   EDIFFG = -1.000000e-5
   ISMEAR = 0
   SIGMA = 0.05
   IALGO = 38
   LREAL = .FALSE.
   ADDGRID = .TRUE.
   LWAVE = .FALSE.
   LCHARG = .FALSE.
   NCORE = 9

 POTCAR:    PAW_PBE Bi_d 06Sep2000                
 POTCAR:    PAW_PBE Se 06Sep2000                  
 POTCAR:    PAW_PBE O 08Apr2002                   
 POTCAR:    PAW_PBE S 06Sep2000                   
 POTCAR:    PAW_PBE Bi_d 06Sep2000                
   SHA256 =  572e7eac3f9482ff025db24f2820381a7a3856069fa85913dc654793f618f69a Bi_d/POTCAR           
   COPYR  = (c) Copyright 06Sep2000 Georg Kresse                                                    
   COPYR  = This file is part of the software VASP. Any use, copying, and all other rights are regul
   COPYR  = If you do not have a valid VASP license, you may not use, copy or distribute this file. 
   VRHFIN =Bi:                                                                                      
   LEXCH  = PE                                                                                      
   EATOM  =  1959.2045 eV,  143.9975 Ry                                                             
                                                                                                    
   TITEL  = PAW_PBE Bi_d 06Sep2000                                                                  
   LULTRA =        F    use ultrasoft PP ?                                                          
   IUNSCR =        1    unscreen: 0-lin 1-nonlin 2-no                                               
   RPACOR =    2.200    partial core radius                                                         
   POMASS =  208.980; ZVAL   =   15.000    mass and valenz                                          
   RCORE  =    2.500    outmost cutoff radius                                                       
   RWIGS  =    3.090; RWIGS  =    1.635    wigner-seitz radius (au A)                               
   ENMAX  =  242.839; ENMIN  =  182.129 eV                                                          
   ICORE  =        3    local potential                                                             
   LCOR   =        T    correct aug charges                                                         
   LPAW   =        T    paw PP                                                                      
   EAUG   =  442.899                                                                                
   DEXC   =    0.000                                                                                
   RMAX   =    2.551    core radius for proj-oper                                                   
   RAUG   =    1.300    factor for augmentation sphere                                              
   RDEP   =    2.650    radius for radial grids                                                     
   RDEPT  =    2.039    core radius for aug-charge                                                  
                                                                                                    
   Atomic configuration                                                                             
   16 entries                                                                                       
     n  l   j            E        occ.                                                              
     1  0  0.50    -90639.6581   2.0000                                                             
     2  0  0.50    -16282.4666   2.0000                                                             
     2  1  1.50    -13922.8286   6.0000                                                             
     3  0  0.50     -3930.4763   2.0000                                                             
     3  1  1.50     -3256.7013   6.0000                                                             
     3  2  2.50     -2581.6168  10.0000                                                             
     4  0  0.50      -902.2614   2.0000                                                             
     4  1  1.50      -681.5915   6.0000                                                             
     4  2  2.50      -429.8249  10.0000                                                             
     4  3  3.50      -152.6004  14.0000                                                             
     5  0  0.50      -157.7156   2.0000                                                             
     5  1  1.50       -95.8054   6.0000                                                             
     5  2  2.50       -27.0806  10.0000                                                             
     6  0  0.50       -14.4732   2.0000                                                             
     6  1  1.50        -4.5702   3.0000                                                             
     5  3  2.50        -2.7212   0.0000                                                             
   Description                                                                                      
     l       E           TYP  RCUT    TYP  RCUT                                                     
     2    -27.0805982     23  2.500                                                                 
     2     -1.3605826     23  2.500                                                                 
     0    -14.4732271     23  2.500                                                                 
     0      6.8029130     23  2.500                                                                 
     1     -4.5701651     23  2.500                                                                 
     1     13.6058260     23  2.500                                                                 
     3     -1.3605826      7  2.500                                                                 
  local pseudopotential read in
  partial core-charges read in
  partial kinetic energy density read in
  atomic valenz-charges read in
  non local Contribution for L=           2  read in
    real space projection operators read in
  non local Contribution for L=           2  read in
    real space projection operators read in
  non local Contribution for L=           0  read in
    real space projection operators read in
  non local Contribution for L=           0  read in
    real space projection operators read in
  non local Contribution for L=           1  read in
    real space projection operators read in
  non local Contribution for L=           1  read in
    real space projection operators read in
    PAW grid and wavefunctions read in
 
   number of l-projection  operators is LMAX  =           6
   number of lm-projection operators is LMMAX =          18
 
 POTCAR:    PAW_PBE Se 06Sep2000                  
   SHA256 =  eabb916e6b4c819dc065ce039373bc328651da483898f08fb9e49c498452bf12 Se/POTCAR             
   COPYR  = (c) Copyright 06Sep2000 Georg Kresse                                                    
   COPYR  = This file is part of the software VASP. Any use, copying, and all other rights are regul
   COPYR  = If you do not have a valid VASP license, you may not use, copy or distribute this file. 
   VRHFIN =Se: s2p4                                                                                 
   LEXCH  = PE                                                                                      
   EATOM  =   257.1286 eV,   18.8984 Ry                                                             
                                                                                                    
   TITEL  = PAW_PBE Se 06Sep2000                                                                    
   LULTRA =        F    use ultrasoft PP ?                                                          
   IUNSCR =        1    unscreen: 0-lin 1-nonlin 2-no                                               
   RPACOR =    1.900    partial core radius                                                         
   POMASS =   78.960; ZVAL   =    6.000    mass and valenz                                          
   RCORE  =    2.100    outmost cutoff radius                                                       
   RWIGS  =    2.200; RWIGS  =    1.164    wigner-seitz radius (au A)                               
   ENMAX  =  211.555; ENMIN  =  158.666 eV                                                          
   ICORE  =        3    local potential                                                             
   LCOR   =        T    correct aug charges                                                         
   LPAW   =        T    paw PP                                                                      
   EAUG   =  446.842                                                                                
   DEXC   =    0.000                                                                                
   RMAX   =    2.147    core radius for proj-oper                                                   
   RAUG   =    1.300    factor for augmentation sphere                                              
   RDEP   =    2.177    radius for radial grids                                                     
   RDEPT  =    1.928    core radius for aug-charge                                                  
                                                                                                    
   Atomic configuration                                                                             
   10 entries                                                                                       
     n  l   j            E        occ.                                                              
     1  0  0.50    -12503.4787   2.0000                                                             
     2  0  0.50     -1606.9547   2.0000                                                             
     2  1  1.50     -1413.3140   6.0000                                                             
     3  0  0.50      -213.4885   2.0000                                                             
     3  1  1.50      -152.9538   6.0000                                                             
     3  2  2.50       -53.1221  10.0000                                                             
     4  0  0.50       -17.2865   2.0000                                                             
     4  1  0.50        -6.5110   4.0000                                                             
     4  2  2.50        -6.8029   0.0000                                                             
     4  3  2.50        -6.8029   0.0000                                                             
   Description                                                                                      
     l       E           TYP  RCUT    TYP  RCUT                                                     
     0    -17.2865377     23  2.100                                                                 
     0    -15.3094411     23  2.100                                                                 
     1     -6.5110275     23  2.100                                                                 
     1     -0.0695192     23  2.100                                                                 
     2     -6.8029130     23  2.100                                                                 
     3     -1.3605826      7  2.100                                                                 
  local pseudopotential read in
  partial core-charges read in
  partial kinetic energy density read in
  atomic valenz-charges read in
  non local Contribution for L=           0  read in
    real space projection operators read in
  non local Contribution for L=           0  read in
    real space projection operators read in
  non local Contribution for L=           1  read in
    real space projection operators read in
  non local Contribution for L=           1  read in
    real space projection operators read in
  non local Contribution for L=           2  read in
    real space projection operators read in
    PAW grid and wavefunctions read in
 
   number of l-projection  operators is LMAX  =           5
   number of lm-projection operators is LMMAX =          13
 
 POTCAR:    PAW_PBE O 08Apr2002                   
   SHA256 =  818f92134a0a090dccd8ba1447fa70422a3b330e708bb4f08108d8ae51209ddf O/POTCAR              
   COPYR  = (c) Copyright 08Apr2002 Georg Kresse                                                    
   COPYR  = This file is part of the software VASP. Any use, copying, and all other rights are regul
   COPYR  = If you do not have a valid VASP license, you may not use, copy or distribute this file. 
   VRHFIN =O: s2p4                                                                                  
   LEXCH  = PE                                                                                      
   EATOM  =   432.3788 eV,   31.7789 Ry                                                             
                                                                                                    
   TITEL  = PAW_PBE O 08Apr2002                                                                     
   LULTRA =        F    use ultrasoft PP ?                                                          
   IUNSCR =        1    unscreen: 0-lin 1-nonlin 2-no                                               
   RPACOR =    1.200    partial core radius                                                         
   POMASS =   16.000; ZVAL   =    6.000    mass and valenz                                          
   RCORE  =    1.520    outmost cutoff radius                                                       
   RWIGS  =    1.550; RWIGS  =    0.820    wigner-seitz radius (au A)                               
   ENMAX  =  400.000; ENMIN  =  300.000 eV                                                          
   ICORE  =        2    local potential                                                             
   LCOR   =        T    correct aug charges                                                         
   LPAW   =        T    paw PP                                                                      
   EAUG   =  605.392                                                                                
   DEXC   =    0.000                                                                                
   RMAX   =    1.553    core radius for proj-oper                                                   
   RAUG   =    1.300    factor for augmentation sphere                                              
   RDEP   =    1.550    radius for radial grids                                                     
   RDEPT  =    1.329    core radius for aug-charge                                                  
                                                                                                    
   Atomic configuration                                                                             
    4 entries                                                                                       
     n  l   j            E        occ.                                                              
     1  0  0.50      -514.6923   2.0000                                                             
     2  0  0.50       -23.9615   2.0000                                                             
     2  1  0.50        -9.0305   4.0000                                                             
     3  2  1.50        -9.5241   0.0000                                                             
   Description                                                                                      
     l       E           TYP  RCUT    TYP  RCUT                                                     
     0    -23.9615318     23  1.200                                                                 
     0     -9.5240782     23  1.200                                                                 
     1     -9.0304911     23  1.520                                                                 
     1      8.1634956     23  1.520                                                                 
     2     -9.5240782      7  1.500                                                                 
  local pseudopotential read in
  partial core-charges read in
  partial kinetic energy density read in
  kinetic energy density of atom read in
  atomic valenz-charges read in
  non local Contribution for L=           0  read in
    real space projection operators read in
  non local Contribution for L=           0  read in
    real space projection operators read in
  non local Contribution for L=           1  read in
    real space projection operators read in
  non local Contribution for L=           1  read in
    real space projection operators read in
    PAW grid and wavefunctions read in
 
   number of l-projection  operators is LMAX  =           4
   number of lm-projection operators is LMMAX =           8
 
 POTCAR:    PAW_PBE S 06Sep2000                   
   SHA256 =  0fc7481fb0695f01bdc6462160264c5c84044ae9ec85a907d398b887a2bc3132 S/POTCAR              
   COPYR  = (c) Copyright 06Sep2000 Georg Kresse                                                    
   COPYR  = This file is part of the software VASP. Any use, copying, and all other rights are regul
   COPYR  = If you do not have a valid VASP license, you may not use, copy or distribute this file. 
   VRHFIN =S : s2p4                                                                                 
   LEXCH  = PE                                                                                      
   EATOM  =   276.8230 eV,   20.3459 Ry                                                             
                                                                                                    
   TITEL  = PAW_PBE S 06Sep2000                                                                     
   LULTRA =        F    use ultrasoft PP ?                                                          
   IUNSCR =        1    unscreen: 0-lin 1-nonlin 2-no                                               
   RPACOR =    1.500    partial core radius                                                         
   POMASS =   32.066; ZVAL   =    6.000    mass and valenz                                          
   RCORE  =    1.900    outmost cutoff radius                                                       
   RWIGS  =    2.200; RWIGS  =    1.164    wigner-seitz radius (au A)                               
   ENMAX  =  258.689; ENMIN  =  194.016 eV                                                          
   ICORE  =        2    local potential                                                             
   LCOR   =        T    correct aug charges                                                         
   LPAW   =        T    paw PP                                                                      
   EAUG   =  335.092                                                                                
   DEXC   =    0.000                                                                                
   RMAX   =    1.942    core radius for proj-oper                                                   
   RAUG   =    1.300    factor for augmentation sphere                                              
   RDEP   =    1.954    radius for radial grids                                                     
   RDEPT  =    1.744    core radius for aug-charge                                                  
                                                                                                    
   Atomic configuration                                                                             
    6 entries                                                                                       
     n  l   j            E        occ.                                                              
     1  0  0.50     -2405.8406   2.0000                                                             
     2  0  0.50      -211.7007   2.0000                                                             
     2  1  1.50      -156.4958   6.0000                                                             
     3  0  0.50       -17.2562   2.0000                                                             
     3  1  0.50        -7.0085   4.0000                                                             
     3  2  1.50        -6.8029   0.0000                                                             
   Description                                                                                      
     l       E           TYP  RCUT    TYP  RCUT                                                     
     0    -17.2561641     23  1.900                                                                 
     0    -15.8743224     23  1.900                                                                 
     1     -7.0085400     23  1.900                                                                 
     1     -2.7779785     23  1.900                                                                 
     2     -6.8029130     23  1.900                                                                 
  local pseudopotential read in
  partial core-charges read in
  partial kinetic energy density read in
  atomic valenz-charges read in
  non local Contribution for L=           0  read in
    real space projection operators read in
  non local Contribution for L=           0  read in
    real space projection operators read in
  non local Contribution for L=           1  read in
    real space projection operators read in
  non local Contribution for L=           1  read in
    real space projection operators read in
    PAW grid and wavefunctions read in
 
   number of l-projection  operators is LMAX  =           4
   number of lm-projection operators is LMMAX =           8
 
 -----------------------------------------------------------------------------
|                                                                             |
|               ----> ADVICE to this user running VASP <----                  |
|                                                                             |
|     You have a (more or less) 'large supercell' and for larger cells it     |
|     might be more efficient to use real-space projection operators.         |
|     Therefore, try LREAL= Auto in the INCAR file.                           |
|     Mind: For very accurate calculation, you might also keep the            |
|     reciprocal projection scheme (i.e. LREAL=.FALSE.).                      |
|                                                                             |
 -----------------------------------------------------------------------------

  PAW_PBE Bi_d 06Sep2000                :
 energy of atom  1       EATOM=-1959.2045
 kinetic energy error for atom=    0.0040 (will be added to EATOM!!)
  PAW_PBE Se 06Sep2000                  :
 energy of atom  2       EATOM= -257.1286
 kinetic energy error for atom=    0.0007 (will be added to EATOM!!)
  PAW_PBE O 08Apr2002                   :
 energy of atom  3       EATOM= -432.3788
 kinetic energy error for atom=    0.0208 (will be added to EATOM!!)
  PAW_PBE S 06Sep2000                   :
 energy of atom  4       EATOM= -276.8230
 kinetic energy error for atom=    0.0016 (will be added to EATOM!!)
 
 
 POSCAR: generated by phonopy
  positions in direct lattice
  velocities in cartesian coordinates


 exchange-correlation table for PE
   RHO(1)=    0.500       N(1)  =     2000
   RHO(2)=  100.500       N(2)  =     4000
 


--------------------------------------------------------------------------------------------------------


 ion  position               nearest neighbor table
   1  0.249  0.249  0.854-  24 2.34  28 2.34  25 2.35  30 2.35  40 3.32  18 3.33  17 3.33  19 3.34
                            13 3.64   5 3.78   7 3.78   6 3.78   8 3.78   3 3.92   2 3.92
   2  0.751  0.249  0.854-  24 2.34  29 2.34  25 2.35  31 2.35  40 3.32  18 3.33  17 3.33  19 3.34
                            14 3.64   5 3.78   7 3.78   6 3.78   8 3.78   4 3.92   1 3.92
   3  0.249  0.751  0.854-  26 2.34  28 2.34  27 2.35  30 2.35  40 3.32  18 3.33  17 3.33  19 3.34
                            15 3.64   5 3.78   7 3.78   6 3.78   8 3.78   4 3.92   1 3.92
   4  0.751  0.751  0.854-  26 2.34  29 2.34  27 2.35  31 2.35  40 3.32  18 3.33  17 3.33  19 3.34
                            16 3.64   5 3.78   7 3.78   6 3.78   8 3.78   3 3.92   2 3.92
   5  0.000  0.000  0.647-  24 2.35  26 2.35  28 2.35  29 2.35  20 3.34  21 3.34  22 3.34  23 3.34
                             9 3.67   2 3.78   3 3.78   4 3.78   1 3.78
   6  0.500  0.000  0.648-  28 2.35  29 2.35  25 2.35  27 2.35  20 3.34  21 3.34  22 3.34  23 3.34
                            10 3.69   2 3.78   3 3.78   4 3.78   1 3.78
   7  0.000  0.500  0.648-  24 2.35  26 2.35  30 2.35  31 2.35  20 3.34  21 3.34  22 3.34  23 3.34
                            11 3.69   2 3.78   3 3.78   4 3.78   1 3.78
   8  0.500  0.500  0.649-  25 2.35  27 2.35  30 2.35  31 2.35  20 3.35  21 3.35  22 3.35  23 3.35
                            12 3.71   2 3.78   3 3.78   4 3.78   1 3.78
   9  0.000  0.000  0.353-  32 2.35  33 2.35  36 2.35  38 2.35  20 3.34  21 3.34  22 3.34  23 3.34
                             5 3.67  13 3.78  14 3.78  15 3.78  16 3.78
  10  0.500  0.000  0.352-  32 2.35  33 2.35  37 2.35  39 2.35  20 3.34  21 3.34  22 3.34  23 3.34
                             6 3.69  13 3.78  14 3.78  15 3.78  16 3.78
  11  0.000  0.500  0.352-  36 2.35  38 2.35  34 2.35  35 2.35  20 3.34  21 3.34  22 3.34  23 3.34
                             7 3.69  13 3.78  14 3.78  15 3.78  16 3.78
  12  0.500  0.500  0.351-  34 2.35  35 2.35  37 2.35  39 2.35  20 3.35  21 3.35  22 3.35  23 3.35
                             8 3.71  13 3.78  14 3.78  15 3.78  16 3.78
  13  0.249  0.249  0.146-  32 2.34  36 2.34  34 2.35  37 2.35  40 3.32  18 3.33  17 3.33  19 3.34
                             1 3.64   9 3.78  10 3.78  11 3.78  12 3.78  14 3.92  15 3.92
  14  0.751  0.249  0.146-  33 2.34  36 2.34  35 2.35  37 2.35  40 3.32  18 3.33  17 3.33  19 3.34
                             2 3.64   9 3.78  10 3.78  11 3.78  12 3.78  13 3.92  16 3.92
  15  0.249  0.751  0.146-  32 2.34  38 2.34  34 2.35  39 2.35  40 3.32  18 3.33  17 3.33  19 3.34
                             3 3.64   9 3.78  10 3.78  11 3.78  12 3.78  13 3.92  16 3.92
  16  0.751  0.751  0.146-  33 2.34  38 2.34  35 2.35  39 2.35  40 3.32  18 3.33  17 3.33  19 3.34
                             4 3.64   9 3.78  10 3.78  11 3.78  12 3.78  14 3.92  15 3.92
  17  0.500  0.000  0.000-   1 3.33   2 3.33   3 3.33   4 3.33  13 3.33  14 3.33  15 3.33  16 3.33

  18  0.000  0.500  0.000-   1 3.33   2 3.33   3 3.33   4 3.33  13 3.33  14 3.33  15 3.33  16 3.33

  19  0.500  0.500  0.000-   1 3.34   2 3.34   3 3.34   4 3.34  13 3.34  14 3.34  15 3.34  16 3.34

  20  0.250  0.250  0.500-   5 3.34   9 3.34  10 3.34  11 3.34   7 3.34   6 3.34   8 3.35  12 3.35

  21  0.750  0.250  0.500-   5 3.34   9 3.34  10 3.34  11 3.34   7 3.34   6 3.34   8 3.35  12 3.35

  22  0.250  0.750  0.500-   5 3.34   9 3.34  10 3.34  11 3.34   7 3.34   6 3.34   8 3.35  12 3.35

  23  0.750  0.750  0.500-   5 3.34   9 3.34  10 3.34  11 3.34   7 3.34   6 3.34   8 3.35  12 3.35

  24  0.000  0.250  0.751-   1 2.34   2 2.34   5 2.35   7 2.35
  25  0.500  0.250  0.751-   8 2.35   6 2.35   1 2.35   2 2.35
  26  0.000  0.750  0.751-   3 2.34   4 2.34   5 2.35   7 2.35
  27  0.500  0.750  0.751-   8 2.35   6 2.35   3 2.35   4 2.35
  28  0.250  0.000  0.751-   1 2.34   3 2.34   5 2.35   6 2.35
  29  0.750  0.000  0.751-   2 2.34   4 2.34   5 2.35   6 2.35
  30  0.250  0.500  0.751-   8 2.35   7 2.35   1 2.35   3 2.35
  31  0.750  0.500  0.751-   8 2.35   7 2.35   2 2.35   4 2.35
  32  0.250  0.000  0.249-  13 2.34  15 2.34   9 2.35  10 2.35
  33  0.750  0.000  0.249-  14 2.34  16 2.34   9 2.35  10 2.35
  34  0.250  0.500  0.249-  12 2.35  11 2.35  13 2.35  15 2.35
  35  0.750  0.500  0.249-  12 2.35  11 2.35  14 2.35  16 2.35
  36  0.000  0.250  0.249-  13 2.34  14 2.34   9 2.35  11 2.35
  37  0.500  0.250  0.249-  12 2.35  10 2.35  13 2.35  14 2.35
  38  0.000  0.750  0.249-  15 2.34  16 2.34   9 2.35  11 2.35
  39  0.500  0.750  0.249-  12 2.35  10 2.35  15 2.35  16 2.35
  40  0.000  0.000  0.000-   1 3.32   2 3.32   3 3.32   4 3.32  13 3.32  14 3.32  15 3.32  16 3.32

 
  LATTYP: Found a simple tetragonal cell.
 ALAT       =     7.8793598439
 C/A-ratio  =     1.5781187256
  
  Lattice vectors:
  
 A1 = (   7.8793598439,   0.0000000000,   0.0000000000)
 A2 = (   0.0000000000,   7.8793598439,   0.0000000000)
 A3 = (   0.0000000000,   0.0000000000,  12.4345653154)


Analysis of symmetry for initial positions (statically):
=====================================================================
 Subroutine PRICEL returns:
 Original cell was already a primitive cell.
 

 Routine SETGRP: Setting up the symmetry group for a 
 simple tetragonal supercell.


 Subroutine GETGRP returns: Found 16 space group operations
 (whereof 16 operations were pure point group operations)
 out of a pool of 16 trial point group operations.


The static configuration has the point symmetry D_4h.


Analysis of symmetry for dynamics (positions and initial velocities):
=====================================================================
 Subroutine PRICEL returns:
 Original cell was already a primitive cell.
 

 Routine SETGRP: Setting up the symmetry group for a 
 simple tetragonal supercell.


 Subroutine GETGRP returns: Found 16 space group operations
 (whereof 16 operations were pure point group operations)
 out of a pool of 16 trial point group operations.


The dynamic configuration has the point symmetry D_4h.


 Subroutine INISYM returns: Found 16 space group operations
 (whereof 16 operations are pure point group operations),
 and found     1 'primitive' translations


----------------------------------------------------------------------------------------

                                     Primitive cell                                     

  volume of cell :     771.9914

  direct lattice vectors                    reciprocal lattice vectors
     7.879359844  0.000000000  0.000000000     0.126913864  0.000000000  0.000000000
     0.000000000  7.879359844  0.000000000     0.000000000  0.126913864  0.000000000
     0.000000000  0.000000000 12.434565315     0.000000000  0.000000000  0.080420986

  length of vectors
     7.879359844  7.879359844 12.434565315     0.126913864  0.126913864  0.080420986

  position of ions in fractional coordinates (direct lattice)
     0.248940772  0.248940772  0.853555486
     0.751059228  0.248940772  0.853555486
     0.248940772  0.751059228  0.853555486
     0.751059228  0.751059228  0.853555486
     0.000000000  0.000000000  0.647447555
     0.500000000  0.000000000  0.648244756
     0.000000000  0.500000000  0.648244756
     0.500000000  0.500000000  0.649147871
     0.000000000  0.000000000  0.352552445
     0.500000000  0.000000000  0.351755244
     0.000000000  0.500000000  0.351755244
     0.500000000  0.500000000  0.350852129
     0.248940772  0.248940772  0.146444514
     0.751059228  0.248940772  0.146444514
     0.248940772  0.751059228  0.146444514
     0.751059228  0.751059228  0.146444514
     0.500000000  0.000000000  0.000000000
     0.000000000  0.500000000  0.000000000
     0.500000000  0.500000000  0.000000000
     0.250048693  0.250048693  0.500000000
     0.749951307  0.250048693  0.500000000
     0.250048693  0.749951307  0.500000000
     0.749951307  0.749951307  0.500000000
     0.000000000  0.249565461  0.750510270
     0.500000000  0.249701222  0.751359725
     0.000000000  0.750434539  0.750510270
     0.500000000  0.750298778  0.751359725
     0.249565461  0.000000000  0.750510270
     0.750434539  0.000000000  0.750510270
     0.249701222  0.500000000  0.751359725
     0.750298778  0.500000000  0.751359725
     0.249565461  0.000000000  0.249489730
     0.750434539  0.000000000  0.249489730
     0.249701222  0.500000000  0.248640275
     0.750298778  0.500000000  0.248640275
     0.000000000  0.249565461  0.249489730
     0.500000000  0.249701222  0.248640275
     0.000000000  0.750434539  0.249489730
     0.500000000  0.750298778  0.248640275
     0.000000000  0.000000000  0.000000000

  ion indices of the primitive-cell ions
   primitive index   ion index
                 1           1
                 2           2
                 3           3
                 4           4
                 5           5
                 6           6
                 7           7
                 8           8
                 9           9
                10          10
                11          11
                12          12
                13          13
                14          14
                15          15
                16          16
                17          17
                18          18
                19          19
                20          20
                21          21
                22          22
                23          23
                24          24
                25          25
                26          26
                27          27
                28          28
                29          29
                30          30
                31          31
                32          32
                33          33
                34          34
                35          35
                36          36
                37          37
                38          38
                39          39
                40          40

----------------------------------------------------------------------------------------

 
 
 KPOINTS: K-Spacing Value to Generate K-Mesh: 0.03

Automatic generation of k-mesh.
 Grid dimensions read from file:
 generate k-points for:    4    4    3

 Generating k-lattice:

  Cartesian coordinates                     Fractional coordinates (reciprocal lattice)
     0.031728466  0.000000000  0.000000000     0.250000000  0.000000000  0.000000000
     0.000000000  0.031728466  0.000000000     0.000000000  0.250000000  0.000000000
     0.000000000  0.000000000  0.026806995     0.000000000  0.000000000  0.333333333

  Length of vectors
     0.031728466  0.031728466  0.026806995

  Shift w.r.t. Gamma in fractional coordinates (k-lattice)
     0.000000000  0.000000000  0.000000000

 
 Subroutine IBZKPT returns following result:
 ===========================================
 
 Found     12 irreducible k-points:
 
 Following reciprocal coordinates:
            Coordinates               Weight
  0.000000  0.000000  0.000000      1.000000
  0.250000  0.000000  0.000000      4.000000
  0.500000  0.000000  0.000000      2.000000
  0.250000  0.250000  0.000000      4.000000
  0.500000  0.250000  0.000000      4.000000
  0.500000  0.500000  0.000000      1.000000
  0.000000  0.000000  0.333333      2.000000
  0.250000  0.000000  0.333333      8.000000
  0.500000  0.000000  0.333333      4.000000
  0.250000  0.250000  0.333333      8.000000
  0.500000  0.250000  0.333333      8.000000
  0.500000  0.500000  0.333333      2.000000
 
 Following cartesian coordinates:
            Coordinates               Weight
  0.000000  0.000000  0.000000      1.000000
  0.031887  0.000000  0.000000      4.000000
  0.063774  0.000000  0.000000      2.000000
  0.031887  0.031887  0.000000      4.000000
  0.063774  0.031887  0.000000      4.000000
  0.063774  0.063774  0.000000      1.000000
  0.000000  0.000000  0.026941      2.000000
  0.031887  0.000000  0.026941      8.000000
  0.063774  0.000000  0.026941      4.000000
  0.031887  0.031887  0.026941      8.000000
  0.063774  0.031887  0.026941      8.000000
  0.063774  0.063774  0.026941      2.000000
 


--------------------------------------------------------------------------------------------------------




 Dimension of arrays:
   k-points           NKPTS =     12   k-points in BZ     NKDIM =     12   number of bands    NBANDS=    232
   number of dos      NEDOS =    301   number of ions     NIONS =     40
   non local maximal  LDIM  =      6   non local SUM 2l+1 LMDIM =     18
   total plane-waves  NPLWV = 345600
   max r-space proj   IRMAX =      1   max aug-charges    IRDMAX= 158456
   dimension x,y,z NGX =    60 NGY =   60 NGZ =   96
   dimension x,y,z NGXF=   120 NGYF=  120 NGZF=  192
   support grid    NGXF=   240 NGYF=  240 NGZF=  384
   ions per type =              16   7  16   1
   NGX,Y,Z   is equivalent  to a cutoff of  12.66, 12.66, 12.83 a.u.
   NGXF,Y,Z  is equivalent  to a cutoff of  25.32, 25.32, 25.67 a.u.

 SYSTEM =  unknown system                          
 POSCAR =  generated by phonopy                    

 Startparameter for this run:
   NWRITE =      2    write-flag & timer
   PREC   = accura    normal or accurate (medium, high low for compatibility)
   ISTART =      0    job   : 0-new  1-cont  2-samecut
   ICHARG =      2    charge: 1-file 2-atom 10-const
   ISPIN  =      1    spin polarized calculation?
   LNONCOLLINEAR =      F non collinear calculations
   LSORBIT =      F    spin-orbit coupling
   INIWAV =      1    electr: 0-lowe 1-rand  2-diag
   LASPH  =      F    aspherical Exc in radial PAW
 Electronic Relaxation 1
   ENCUT  =  520.0 eV  38.22 Ry    6.18 a.u.  14.65 14.65 23.12*2*pi/ulx,y,z
   ENINI  =  520.0     initial cutoff
   ENAUG  =  605.4 eV  augmentation charge cutoff
   NELM   =     60;   NELMIN=  5; NELMDL= -5     # of ELM steps 
   EDIFF  = 0.1E-07   stopping-criterion for ELM
   LREAL  =      F    real-space projection
   NLSPLINE    = F    spline interpolate recip. space projectors
   LCOMPAT=      F    compatible to vasp.4.4
   GGA_COMPAT  = T    GGA compatible to vasp.4.4-vasp.4.6
   LMAXPAW     = -100 max onsite density
   LMAXMIX     =    2 max onsite mixed and CHGCAR
   VOSKOWN=      0    Vosko Wilk Nusair interpolation
   ROPT   =    0.00000   0.00000   0.00000   0.00000
 Ionic relaxation
   EDIFFG = -.1E-04   stopping-criterion for IOM
   NSW    =    100    number of steps for IOM
   NBLOCK =      1;   KBLOCK =    100    inner block; outer block 
   IBRION =      2    ionic relax: 0-MD 1-quasi-New 2-CG
   NFREE  =      1    steps in history (QN), initial steepest desc. (CG)
   ISIF   =      2    stress and relaxation
   IWAVPR =     11    prediction:  0-non 1-charg 2-wave 3-comb
   ISYM   =      2    0-nonsym 1-usesym 2-fastsym
   LCORR  =      T    Harris-Foulkes like correction to forces

   POTIM  = 0.5000    time-step for ionic-motion
   TEIN   =    0.0    initial temperature
   TEBEG  =    0.0;   TEEND  =   0.0 temperature during run
   SMASS  =  -3.00    Nose mass-parameter (am)
   estimated Nose-frequenzy (Omega)   =  0.10E-29 period in steps = 0.13E+47 mass=  -0.142E-26a.u.
   SCALEE = 1.0000    scale energy and forces
   NPACO  =    256;   APACO  = 10.0  distance and # of slots for P.C.
   PSTRESS=    0.0 pullay stress

  Mass of Ions in am
   POMASS = 208.98 78.96 16.00 32.07
  Ionic Valenz
   ZVAL   =  15.00  6.00  6.00  6.00
  Atomic Wigner-Seitz radii
   RWIGS  =  -1.00 -1.00 -1.00 -1.00
  virtual crystal weights 
   VCA    =   1.00  1.00  1.00  1.00
   NELECT =     384.0000    total number of electrons
   NUPDOWN=      -1.0000    fix difference up-down

 DOS related values:
   EMIN   =  10.00;   EMAX   =-10.00  energy-range for DOS
   EFERMI =   0.00;   METHOD = LEGACY      
   ISMEAR =     0;   SIGMA  =   0.05  broadening in eV -4-tet -1-fermi 0-gaus

 Electronic relaxation 2 (details)
   IALGO  =     38    algorithm
   LDIAG  =      T    sub-space diagonalisation (order eigenvalues)
   LSUBROT=      F    optimize rotation matrix (better conditioning)
   TURBO    =      0    0=normal 1=particle mesh
   IRESTART =      0    0=no restart 2=restart with 2 vectors
   NREBOOT  =      0    no. of reboots
   NMIN     =      0    reboot dimension
   EREF     =   0.00    reference energy to select bands
   IMIX   =      4    mixing-type and parameters
     AMIX     =   0.40;   BMIX     =  1.00
     AMIX_MAG =   1.60;   BMIX_MAG =  1.00
     AMIN     =   0.10
     WC   =   100.;   INIMIX=   1;  MIXPRE=   1;  MAXMIX= -45

 Intra band minimization:
   WEIMIN = 0.0010     energy-eigenvalue tresh-hold
   EBREAK =  0.11E-10  absolut break condition
   DEPER  =   0.30     relativ break condition  

   TIME   =   0.40     timestep for ELM

  volume/ion in A,a.u.               =      19.30       130.24
  Fermi-wavevector in a.u.,A,eV,Ry     =   1.297123  2.451207 22.892176  1.682527
  Thomas-Fermi vector in A             =   2.428535
 
 Write flags
   LWAVE        =      F    write WAVECAR
   LDOWNSAMPLE  =      F    k-point downsampling of WAVECAR
   LCHARG       =      F    write CHGCAR
   LVTOT        =      F    write LOCPOT, total local potential
   LVHAR        =      F    write LOCPOT, Hartree potential only
   WRT_POTENTIAL= false  ! write potential to hdf5 file
   LELF         =      F    write electronic localiz. function (ELF)
   LORBIT       =      0    0 simple, 1 ext, 2 COOP (PROOUT), +10 PAW based schemes


 Dipole corrections
   LMONO      =      F    monopole corrections only (constant potential shift)
   LDIPOL     =      F    correct potential (dipole corrections)
   IDIPOL     =      0    1-x, 2-y, 3-z, 4-all directions 
   EPSILON    =  1.0000000 bulk dielectric constant
   LVACPOTAV  =      F  vacuum potentials using an averaging scheme for the charge density
   VACPOTFLAT =  0.1000000 required flatness to determine vacuum potential
 Exchange correlation treatment:
   GGA     = PE    functional components
   XC_C    = 1    coefficients multiplying the functional components
   LIBXC   =     F    Libxc                    
   VOSKOWN =     0    Vosko Wilk Nusair interpolation
   LHFCALC =     F    Hartree Fock is set to
   LHFONE  =     F    Hartree Fock one center treatment
   AEXX    =    0.0000 exact exchange contribution

 Parameters of functionals:
   PE:
     No parameter
 
 Van der Waals corrections
   IVDW    =     0    specifies the selected vdW correction

 Linear response parameters
   LEPSILON=     F    determine dielectric tensor
   LRPA    =     F    only Hartree local field effects (RPA)
   LNABLA  =     F    use nabla operator in PAW spheres
   LVEL    =     F    velocity operator in full k-point grid
   CSHIFT  =0.1000    complex shift for real part using Kramers Kronig
   OMEGAMAX=  -1.0    maximum frequency
   DEG_THRESHOLD= 0.2000000E-02 threshold for treating states as degnerate
   RTIME   =   -0.100 relaxation time in fs
  (WPLASMAI=    0.000 imaginary part of plasma frequency in eV, 0.658/RTIME)
   DFIELD  = 0.0000000 0.0000000 0.0000000 field for delta impulse in time
 
  Optional k-point grid parameters
   LKPOINTS_OPT  =     F    use optional k-point grid
   KPOINTS_OPT_MODE=     1    mode for optional k-point grid
 
 Orbital magnetization related:
   ORBITALMAG=     F  switch on orbital magnetization
   LCHIMAG   =     F  perturbation theory with respect to B field
   DQ        =  0.001000  dq finite difference perturbation B field
   LLRAUG    =     F  two centre corrections for induced B field
   LBONE     =     F  B-component reconstruction in AE one-centre
   LVGVCALC  =     T  calculate vGv susceptibility
   LVGVAPPL  =     F  apply vGv susceptibility instead of pGv for G=0

 Random number generation:
   RANDOM_GENERATOR = DEFAULT
   PCG_SEED         = not used


--------------------------------------------------------------------------------------------------------


 conjugate gradient relaxation of ions
 charge density and potential will be updated during run
 non-spin polarized calculation
 Variant of blocked Davidson
 Davidson routine will perform the subspace rotation
 perform sub-space diagonalisation
    after iterative eigenvector-optimisation
 modified Broyden-mixing scheme, WC =      100.0
 initial mixing is a Kerker type mixing with AMIX =  0.4000 and BMIX =      1.0000
 Hartree-type preconditioning will be used
 using additional bands           40
 reciprocal scheme for non local part
 use partial core corrections
 calculate Harris-corrections to forces 
   (improved forces if not selfconsistent)
 use gradient corrections 
 use of overlap-Matrix (Vanderbilt PP)
 Gauss-broadening in eV      SIGMA  =   0.05


--------------------------------------------------------------------------------------------------------


  energy-cutoff  :      520.00
  volume of cell :      771.99
      direct lattice vectors                 reciprocal lattice vectors
     7.879359844  0.000000000  0.000000000     0.126913864  0.000000000  0.000000000
     0.000000000  7.879359844  0.000000000     0.000000000  0.126913864  0.000000000
     0.000000000  0.000000000 12.434565315     0.000000000  0.000000000  0.080420986

  length of vectors
     7.879359844  7.879359844 12.434565315     0.126913864  0.126913864  0.080420986


 
 k-points in units of 2pi/SCALE and weight: K-Spacing Value to Generate K-Mesh: 0.03
   0.00000000  0.00000000  0.00000000       0.021
   0.03188711  0.00000000  0.00000000       0.083
   0.06377422  0.00000000  0.00000000       0.042
   0.03188711  0.03188711  0.00000000       0.083
   0.06377422  0.03188711  0.00000000       0.083
   0.06377422  0.06377422  0.00000000       0.021
   0.00000000  0.00000000  0.02694103       0.042
   0.03188711  0.00000000  0.02694103       0.167
   0.06377422  0.00000000  0.02694103       0.083
   0.03188711  0.03188711  0.02694103       0.167
   0.06377422  0.03188711  0.02694103       0.167
   0.06377422  0.06377422  0.02694103       0.042
 
 k-points in reciprocal lattice and weights: K-Spacing Value to Generate K-Mesh: 0.03
   0.00000000  0.00000000  0.00000000       0.021
   0.25000000  0.00000000  0.00000000       0.083
   0.50000000  0.00000000  0.00000000       0.042
   0.25000000  0.25000000  0.00000000       0.083
   0.50000000  0.25000000  0.00000000       0.083
   0.50000000  0.50000000  0.00000000       0.021
   0.00000000  0.00000000  0.33333333       0.042
   0.25000000  0.00000000  0.33333333       0.167
   0.50000000  0.00000000  0.33333333       0.083
   0.25000000  0.25000000  0.33333333       0.167
   0.50000000  0.25000000  0.33333333       0.167
   0.50000000  0.50000000  0.33333333       0.042
 
 position of ions in fractional coordinates (direct lattice) 
   0.24894077  0.24894077  0.85355549
   0.75105923  0.24894077  0.85355549
   0.24894077  0.75105923  0.85355549
   0.75105923  0.75105923  0.85355549
   0.00000000  0.00000000  0.64744756
   0.50000000  0.00000000  0.64824476
   0.00000000  0.50000000  0.64824476
   0.50000000  0.50000000  0.64914787
   0.00000000  0.00000000  0.35255244
   0.50000000  0.00000000  0.35175524
   0.00000000  0.50000000  0.35175524
   0.50000000  0.50000000  0.35085213
   0.24894077  0.24894077  0.14644451
   0.75105923  0.24894077  0.14644451
   0.24894077  0.75105923  0.14644451
   0.75105923  0.75105923  0.14644451
   0.50000000  0.00000000  0.00000000
   0.00000000  0.50000000  0.00000000
   0.50000000  0.50000000  0.00000000
   0.25004869  0.25004869  0.50000000
   0.74995131  0.25004869  0.50000000
   0.25004869  0.74995131  0.50000000
   0.74995131  0.74995131  0.50000000
   0.00000000  0.24956546  0.75051027
   0.50000000  0.24970122  0.75135973
   0.00000000  0.75043454  0.75051027
   0.50000000  0.75029878  0.75135973
   0.24956546  0.00000000  0.75051027
   0.75043454  0.00000000  0.75051027
   0.24970122  0.50000000  0.75135973
   0.75029878  0.50000000  0.75135973
   0.24956546  0.00000000  0.24948973
   0.75043454  0.00000000  0.24948973
   0.24970122  0.50000000  0.24864027
   0.75029878  0.50000000  0.24864027
   0.00000000  0.24956546  0.24948973
   0.50000000  0.24970122  0.24864027
   0.00000000  0.75043454  0.24948973
   0.50000000  0.75029878  0.24864027
   0.00000000  0.00000000  0.00000000
 
 position of ions in cartesian coordinates  (Angst):
   1.96149392  1.96149392 10.61359144
   5.91786592  1.96149392 10.61359144
   1.96149392  5.91786592 10.61359144
   5.91786592  5.91786592 10.61359144
   0.00000000  0.00000000  8.05072891
   3.93967992  0.00000000  8.06064176
   0.00000000  3.93967992  8.06064176
   3.93967992  3.93967992  8.07187160
   0.00000000  0.00000000  4.38383640
   3.93967992  0.00000000  4.37392355
   0.00000000  3.93967992  4.37392355
   3.93967992  3.93967992  4.36269372
   1.96149392  1.96149392  1.82097388
   5.91786592  1.96149392  1.82097388
   1.96149392  5.91786592  1.82097388
   5.91786592  5.91786592  1.82097388
   3.93967992  0.00000000  0.00000000
   0.00000000  3.93967992  0.00000000
   3.93967992  3.93967992  0.00000000
   1.97022363  1.97022363  6.21728266
   5.90913621  1.97022363  6.21728266
   1.97022363  5.90913621  6.21728266
   5.90913621  5.90913621  6.21728266
   0.00000000  1.96641607  9.33226897
   3.93967992  1.96748578  9.34283158
   0.00000000  5.91294377  9.33226897
   3.93967992  5.91187406  9.34283158
   1.96641607  0.00000000  9.33226897
   5.91294377  0.00000000  9.33226897
   1.96748578  3.93967992  9.34283158
   5.91187406  3.93967992  9.34283158
   1.96641607  0.00000000  3.10229635
   5.91294377  0.00000000  3.10229635
   1.96748578  3.93967992  3.09173374
   5.91187406  3.93967992  3.09173374
   0.00000000  1.96641607  3.10229635
   3.93967992  1.96748578  3.09173374
   0.00000000  5.91294377  3.10229635
   3.93967992  5.91187406  3.09173374
   0.00000000  0.00000000  0.00000000
 


--------------------------------------------------------------------------------------------------------


 k-point     1 :   0.0000 0.0000 0.0000  plane waves:   20815
 k-point     2 :   0.2500 0.0000 0.0000  plane waves:   20785
 k-point     3 :   0.5000 0.0000 0.0000  plane waves:   20786
 k-point     4 :   0.2500 0.2500 0.0000  plane waves:   20775
 k-point     5 :   0.5000 0.2500 0.0000  plane waves:   20726
 k-point     6 :   0.5000 0.5000 0.0000  plane waves:   20808
 k-point     7 :   0.0000 0.0000 0.3333  plane waves:   20782
 k-point     8 :   0.2500 0.0000 0.3333  plane waves:   20789
 k-point     9 :   0.5000 0.0000 0.3333  plane waves:   20778
 k-point    10 :   0.2500 0.2500 0.3333  plane waves:   20792
 k-point    11 :   0.5000 0.2500 0.3333  plane waves:   20788
 k-point    12 :   0.5000 0.5000 0.3333  plane waves:   20792

 maximum and minimum number of plane-waves per node :      2340     2277

 maximum number of plane-waves:     20815
 maximum index in each direction: 
   IXMAX=   14   IYMAX=   14   IZMAX=   23
   IXMIN=  -15   IYMIN=  -15   IZMIN=  -23


 parallel 3D FFT for wavefunctions:
    minimum data exchange during FFTs selected (reduces bandwidth)
 parallel 3D FFT for charge:
    minimum data exchange during FFTs selected (reduces bandwidth)


 total amount of memory used by VASP MPI-rank0    95653. kBytes
=======================================================================

   base      :      30000. kBytes
   nonl-proj :      17581. kBytes
   fftplans  :      13006. kBytes
   grid      :       8308. kBytes
   one-center:         77. kBytes
   wavefun   :      26681. kBytes
 
     INWAV:  cpu time      0.0000: real time      0.0000
 Broyden mixing: mesh for mixing (old mesh)
   NGX = 29   NGY = 29   NGZ = 47
  (NGX  =120   NGY  =120   NGZ  =192)
  gives a total of  39527 points

 initial charge density was supplied:
 charge density of overlapping atoms calculated
 number of electron     384.0000000 magnetization 
 keeping initial charge density in first step


--------------------------------------------------------------------------------------------------------


 Maximum index for augmentation-charges         5133 (set IRDMAX)


--------------------------------------------------------------------------------------------------------


 First call to EWALD:  gamma=   0.193
 Maximum number of real-space cells 3x 3x 2
 Maximum number of reciprocal cells 2x 2x 4

    FEWALD:  cpu time      0.0019: real time      0.0018


--------------------------------------- Ionic step        1  -------------------------------------------




--------------------------------------- Iteration      1(   1)  ---------------------------------------


    POTLOK:  cpu time      0.1794: real time      0.1794
    SETDIJ:  cpu time      0.6641: real time      0.6642
     EDDAV:  cpu time     32.7922: real time     32.8003
       DOS:  cpu time      0.0019: real time      0.0020
    --------------------------------------------
      LOOP:  cpu time     33.6376: real time     33.6459

 eigenvalue-minimisations  :  5568
 total energy-change (2. order) : 0.5606231E+04  (-0.1753498E+05)
 number of electron     384.0000000 magnetization 
 augmentation part      384.0000000 magnetization 

 Free energy of the ion-electron system (eV)
  ---------------------------------------------------
  alpha Z        PSCENC =      1308.50698147
  Ewald energy   TEWEN  =    -29228.86870517
  -Hartree energ DENC   =    -11532.44209565
  -exchange      EXHF   =         0.00000000
  -V(xc)+E(xc)   XCENC  =      1233.10675816
  PAW double counting   =     34040.00696010   -33495.80632930
  entropy T*S    EENTRO =        -0.00988785
  eigenvalues    EBANDS =      2940.08573051
  atomic energy  EATOM  =     40341.65184589
  Solvation  Ediel_sol  =         0.00000000
  ---------------------------------------------------
  free energy    TOTEN  =      5606.23125817 eV

  energy without entropy =     5606.24114602  energy(sigma->0) =     5606.23620210


--------------------------------------------------------------------------------------------------------




--------------------------------------- Iteration      1(   2)  ---------------------------------------


     EDDAV:  cpu time     32.8057: real time     32.8125
       DOS:  cpu time      0.0045: real time      0.0050
    --------------------------------------------
      LOOP:  cpu time     32.8102: real time     32.8175

 eigenvalue-minimisations  :  5568
 total energy-change (2. order) :-0.4647171E+04  (-0.4511115E+04)
 number of electron     384.0000000 magnetization 
 augmentation part      384.0000000 magnetization 

 Free energy of the ion-electron system (eV)
  ---------------------------------------------------
  alpha Z        PSCENC =      1308.50698147
  Ewald energy   TEWEN  =    -29228.86870517
  -Hartree energ DENC   =    -11532.44209565
  -exchange      EXHF   =         0.00000000
  -V(xc)+E(xc)   XCENC  =      1233.10675816
  PAW double counting   =     34040.00696010   -33495.80632930
  entropy T*S    EENTRO =        -0.00997000
  eigenvalues    EBANDS =     -1707.08515124
  atomic energy  EATOM  =     40341.65184589
  Solvation  Ediel_sol  =         0.00000000
  ---------------------------------------------------
  free energy    TOTEN  =       959.06029427 eV

  energy without entropy =      959.07026427  energy(sigma->0) =      959.06527927


--------------------------------------------------------------------------------------------------------




--------------------------------------- Iteration      1(   3)  ---------------------------------------


     EDDAV:  cpu time     35.4871: real time     35.4951
       DOS:  cpu time      0.0044: real time      0.0046
    --------------------------------------------
      LOOP:  cpu time     35.4915: real time     35.4997

 eigenvalue-minimisations  :  6216
 total energy-change (2. order) :-0.1070711E+04  (-0.9990035E+03)
 number of electron     384.0000000 magnetization 
 augmentation part      384.0000000 magnetization 

 Free energy of the ion-electron system (eV)
  ---------------------------------------------------
  alpha Z        PSCENC =      1308.50698147
  Ewald energy   TEWEN  =    -29228.86870517
  -Hartree energ DENC   =    -11532.44209565
  -exchange      EXHF   =         0.00000000
  -V(xc)+E(xc)   XCENC  =      1233.10675816
  PAW double counting   =     34040.00696010   -33495.80632930
  entropy T*S    EENTRO =        -0.00000029
  eigenvalues    EBANDS =     -2777.80601541
  atomic energy  EATOM  =     40341.65184589
  Solvation  Ediel_sol  =         0.00000000
  ---------------------------------------------------
  free energy    TOTEN  =      -111.65060018 eV

  energy without entropy =     -111.65059990  energy(sigma->0) =     -111.65060004


--------------------------------------------------------------------------------------------------------




--------------------------------------- Iteration      1(   4)  ---------------------------------------


     EDDAV:  cpu time     37.2922: real time     37.2986
       DOS:  cpu time      0.0016: real time      0.0017
    --------------------------------------------
      LOOP:  cpu time     37.2938: real time     37.3003

 eigenvalue-minimisations  :  6648
 total energy-change (2. order) :-0.1261622E+03  (-0.1224658E+03)
 number of electron     384.0000000 magnetization 
 augmentation part      384.0000000 magnetization 

 Free energy of the ion-electron system (eV)
  ---------------------------------------------------
  alpha Z        PSCENC =      1308.50698147
  Ewald energy   TEWEN  =    -29228.86870517
  -Hartree energ DENC   =    -11532.44209565
  -exchange      EXHF   =         0.00000000
  -V(xc)+E(xc)   XCENC  =      1233.10675816
  PAW double counting   =     34040.00696010   -33495.80632930
  entropy T*S    EENTRO =        -0.00000000
  eigenvalues    EBANDS =     -2903.96817009
  atomic energy  EATOM  =     40341.65184589
  Solvation  Ediel_sol  =         0.00000000
  ---------------------------------------------------
  free energy    TOTEN  =      -237.81275458 eV

  energy without entropy =     -237.81275458  energy(sigma->0) =     -237.81275458


--------------------------------------------------------------------------------------------------------




--------------------------------------- Iteration      1(   5)  ---------------------------------------


     EDDAV:  cpu time     37.5948: real time     37.6002
       DOS:  cpu time      0.0045: real time      0.0046
    CHARGE:  cpu time      1.2393: real time      1.2395
    MIXING:  cpu time      0.0088: real time      0.0088
    --------------------------------------------
      LOOP:  cpu time     38.8474: real time     38.8530

 eigenvalue-minimisations  :  6720
 total energy-change (2. order) :-0.5723368E+01  (-0.5645208E+01)
 number of electron     384.0000004 magnetization 
 augmentation part       98.5445355 magnetization 

 Broyden mixing:
  rms(total) = 0.34191E+01    rms(broyden)= 0.34184E+01
  rms(prec ) = 0.43635E+01
  weight for this iteration     100.00

 Free energy of the ion-electron system (eV)
  ---------------------------------------------------
  alpha Z        PSCENC =      1308.50698147
  Ewald energy   TEWEN  =    -29228.86870517
  -Hartree energ DENC   =    -11532.44209565
  -exchange      EXHF   =         0.00000000
  -V(xc)+E(xc)   XCENC  =      1233.10675816
  PAW double counting   =     34040.00696010   -33495.80632930
  entropy T*S    EENTRO =        -0.00000000
  eigenvalues    EBANDS =     -2909.69153844
  atomic energy  EATOM  =     40341.65184589
  Solvation  Ediel_sol  =         0.00000000
  ---------------------------------------------------
  free energy    TOTEN  =      -243.53612293 eV

  energy without entropy =     -243.53612293  energy(sigma->0) =     -243.53612293


--------------------------------------------------------------------------------------------------------




--------------------------------------- Iteration      1(   6)  ---------------------------------------


    POTLOK:  cpu time      0.1744: real time      0.1746
    SETDIJ:  cpu time      0.6681: real time      0.6680
     EDDAV:  cpu time     41.3745: real time     41.3763
       DOS:  cpu time      0.0012: real time      0.0013
    CHARGE:  cpu time      1.2683: real time      1.2684
    MIXING:  cpu time      0.0060: real time      0.0060
    --------------------------------------------
      LOOP:  cpu time     43.4925: real time     43.4946

 eigenvalue-minimisations  :  7624
 total energy-change (2. order) : 0.3452423E+02  (-0.1466222E+02)
 number of electron     384.0000005 magnetization 
 augmentation part       95.1219022 magnetization 

 Broyden mixing:
  rms(total) = 0.13755E+01    rms(broyden)= 0.13739E+01
  rms(prec ) = 0.16449E+01
  weight for this iteration     100.00

 eigenvalues of (default mixing * dielectric matrix)
  average eigenvalue GAMMA=   0.7575
  0.7575

 Free energy of the ion-electron system (eV)
  ---------------------------------------------------
  alpha Z        PSCENC =      1308.50698147
  Ewald energy   TEWEN  =    -29228.86870517
  -Hartree energ DENC   =    -11777.57726520
  -exchange      EXHF   =         0.00000000
  -V(xc)+E(xc)   XCENC  =      1252.93550242
  PAW double counting   =     34629.16698973   -34041.08368197
  entropy T*S    EENTRO =        -0.00000000
  eigenvalues    EBANDS =     -2693.74355941
  atomic energy  EATOM  =     40341.65184589
  Solvation  Ediel_sol  =         0.00000000
  ---------------------------------------------------
  free energy    TOTEN  =      -209.01189224 eV

  energy without entropy =     -209.01189224  energy(sigma->0) =     -209.01189224


--------------------------------------------------------------------------------------------------------




--------------------------------------- Iteration      1(   7)  ---------------------------------------


    POTLOK:  cpu time      0.1760: real time      0.1761
    SETDIJ:  cpu time      0.6675: real time      0.6675
     EDDAV:  cpu time     35.2359: real time     35.2408
       DOS:  cpu time      0.0018: real time      0.0019
    CHARGE:  cpu time      1.2657: real time      1.2667
    MIXING:  cpu time      0.0071: real time      0.0071
    --------------------------------------------
      LOOP:  cpu time     37.3540: real time     37.3602

 eigenvalue-minimisations  :  6152
 total energy-change (2. order) : 0.2433817E+00  (-0.2922566E+01)
 number of electron     384.0000005 magnetization 
 augmentation part       95.0109640 magnetization 

 Broyden mixing:
  rms(total) = 0.80645E+00    rms(broyden)= 0.80645E+00
  rms(prec ) = 0.88315E+00
  weight for this iteration     100.00

 eigenvalues of (default mixing * dielectric matrix)
  average eigenvalue GAMMA=   1.1240
  1.1240  1.1240

 Free energy of the ion-electron system (eV)
  ---------------------------------------------------
  alpha Z        PSCENC =      1308.50698147
  Ewald energy   TEWEN  =    -29228.86870517
  -Hartree energ DENC   =    -11685.94542402
  -exchange      EXHF   =         0.00000000
  -V(xc)+E(xc)   XCENC  =      1249.40876559
  PAW double counting   =     35344.44505723   -34749.34306794
  entropy T*S    EENTRO =        -0.00000000
  eigenvalues    EBANDS =     -2788.62396355
  atomic energy  EATOM  =     40341.65184589
  Solvation  Ediel_sol  =         0.00000000
  ---------------------------------------------------
  free energy    TOTEN  =      -208.76851050 eV

  energy without entropy =     -208.76851050  energy(sigma->0) =     -208.76851050


--------------------------------------------------------------------------------------------------------




--------------------------------------- Iteration      1(   8)  ---------------------------------------


    POTLOK:  cpu time      0.1752: real time      0.1760
    SETDIJ:  cpu time      0.6651: real time      0.6652
     EDDAV:  cpu time     42.6115: real time     42.6129
       DOS:  cpu time      0.0014: real time      0.0015
    CHARGE:  cpu time      1.2645: real time      1.2649
    MIXING:  cpu time      0.0086: real time      0.0086
    --------------------------------------------
      LOOP:  cpu time     44.7263: real time     44.7291

 eigenvalue-minimisations  :  7928
 total energy-change (2. order) :-0.1427867E+00  (-0.5862468E+00)
 number of electron     384.0000005 magnetization 
 augmentation part       95.3428282 magnetization 

 Broyden mixing:
  rms(total) = 0.34646E+00    rms(broyden)= 0.34629E+00
  rms(prec ) = 0.41008E+00
  weight for this iteration     100.00

 eigenvalues of (default mixing * dielectric matrix)
  average eigenvalue GAMMA=   1.3062
  2.2267  0.8460  0.8460

 Free energy of the ion-electron system (eV)
  ---------------------------------------------------
  alpha Z        PSCENC =      1308.50698147
  Ewald energy   TEWEN  =    -29228.86870517
  -Hartree energ DENC   =    -11671.94662193
  -exchange      EXHF   =         0.00000000
  -V(xc)+E(xc)   XCENC  =      1248.52182380
  PAW double counting   =     35716.13002178   -35115.13638164
  entropy T*S    EENTRO =        -0.00000033
  eigenvalues    EBANDS =     -2807.77026105
  atomic energy  EATOM  =     40341.65184589
  Solvation  Ediel_sol  =         0.00000000
  ---------------------------------------------------
  free energy    TOTEN  =      -208.91129717 eV

  energy without entropy =     -208.91129684  energy(sigma->0) =     -208.91129701


--------------------------------------------------------------------------------------------------------




--------------------------------------- Iteration      1(   9)  ---------------------------------------


    POTLOK:  cpu time      0.1758: real time      0.1758
    SETDIJ:  cpu time      0.6698: real time      0.6705
     EDDAV:  cpu time     40.6146: real time     40.6255
       DOS:  cpu time      0.0012: real time      0.0013
    CHARGE:  cpu time      1.2660: real time      1.2661
    MIXING:  cpu time      0.0066: real time      0.0066
    --------------------------------------------
      LOOP:  cpu time     42.7339: real time     42.7458

 eigenvalue-minimisations  :  7448
 total energy-change (2. order) : 0.7309011E-01  (-0.6222396E-01)
 number of electron     384.0000005 magnetization 
 augmentation part       95.0249548 magnetization 

 Broyden mixing:
  rms(total) = 0.15128E+00    rms(broyden)= 0.15126E+00
  rms(prec ) = 0.18093E+00
  weight for this iteration     100.00

 eigenvalues of (default mixing * dielectric matrix)
  average eigenvalue GAMMA=   1.3110
  2.4667  1.1165  0.8303  0.8303

 Free energy of the ion-electron system (eV)
  ---------------------------------------------------
  alpha Z        PSCENC =      1308.50698147
  Ewald energy   TEWEN  =    -29228.86870517
  -Hartree energ DENC   =    -11698.88576199
  -exchange      EXHF   =         0.00000000
  -V(xc)+E(xc)   XCENC  =      1250.28955511
  PAW double counting   =     36082.97889110   -35476.68480652
  entropy T*S    EENTRO =        -0.00000000
  eigenvalues    EBANDS =     -2787.82620697
  atomic energy  EATOM  =     40341.65184589
  Solvation  Ediel_sol  =         0.00000000
  ---------------------------------------------------
  free energy    TOTEN  =      -208.83820707 eV

  energy without entropy =     -208.83820706  energy(sigma->0) =     -208.83820706


--------------------------------------------------------------------------------------------------------




--------------------------------------- Iteration      1(  10)  ---------------------------------------


    POTLOK:  cpu time      0.1767: real time      0.1768
    SETDIJ:  cpu time      0.6672: real time      0.6673
     EDDAV:  cpu time     38.3533: real time     38.3537
       DOS:  cpu time      0.0011: real time      0.0011
    CHARGE:  cpu time      1.2649: real time      1.2649
    MIXING:  cpu time      0.0068: real time      0.0068
    --------------------------------------------
      LOOP:  cpu time     40.4700: real time     40.4706

 eigenvalue-minimisations  :  6904
 total energy-change (2. order) : 0.1368191E-01  (-0.1865201E-01)
 number of electron     384.0000005 magnetization 
 augmentation part       95.0328057 magnetization 

 Broyden mixing:
  rms(total) = 0.39218E-01    rms(broyden)= 0.39196E-01
  rms(prec ) = 0.41073E-01
  weight for this iteration     100.00

 eigenvalues of (default mixing * dielectric matrix)
  average eigenvalue GAMMA=   1.1638
  2.4151  1.0409  0.8299  0.8299  0.7034

 Free energy of the ion-electron system (eV)
  ---------------------------------------------------
  alpha Z        PSCENC =      1308.50698147
  Ewald energy   TEWEN  =    -29228.86870517
  -Hartree energ DENC   =    -11690.45247170
  -exchange      EXHF   =         0.00000000
  -V(xc)+E(xc)   XCENC  =      1249.97343005
  PAW double counting   =     36200.65594621   -35593.99404905
  entropy T*S    EENTRO =        -0.00000002
  eigenvalues    EBANDS =     -2796.29750284
  atomic energy  EATOM  =     40341.65184589
  Solvation  Ediel_sol  =         0.00000000
  ---------------------------------------------------
  free energy    TOTEN  =      -208.82452516 eV

  energy without entropy =     -208.82452514  energy(sigma->0) =     -208.82452515


--------------------------------------------------------------------------------------------------------




--------------------------------------- Iteration      1(  11)  ---------------------------------------


    POTLOK:  cpu time      0.1764: real time      0.1765
    SETDIJ:  cpu time      0.6669: real time      0.6670
     EDDAV:  cpu time     39.9729: real time     39.9781
       DOS:  cpu time      0.0014: real time      0.0015
    CHARGE:  cpu time      1.2658: real time      1.2659
    MIXING:  cpu time      0.0069: real time      0.0069
    --------------------------------------------
      LOOP:  cpu time     42.0903: real time     42.0959

 eigenvalue-minimisations  :  7288
 total energy-change (2. order) :-0.2322929E-02  (-0.2272906E-02)
 number of electron     384.0000005 magnetization 
 augmentation part       95.0410781 magnetization 

 Broyden mixing:
  rms(total) = 0.34203E-01    rms(broyden)= 0.34201E-01
  rms(prec ) = 0.36631E-01
  weight for this iteration     100.00

 eigenvalues of (default mixing * dielectric matrix)
  average eigenvalue GAMMA=   1.3569
  2.0955  1.6135  1.6135  0.8267  0.8267  1.1655

 Free energy of the ion-electron system (eV)
  ---------------------------------------------------
  alpha Z        PSCENC =      1308.50698147
  Ewald energy   TEWEN  =    -29228.86870517
  -Hartree energ DENC   =    -11690.41978267
  -exchange      EXHF   =         0.00000000
  -V(xc)+E(xc)   XCENC  =      1249.98777947
  PAW double counting   =     36177.19087047   -35570.96384144
  entropy T*S    EENTRO =        -0.00000002
  eigenvalues    EBANDS =     -2795.91199609
  atomic energy  EATOM  =     40341.65184589
  Solvation  Ediel_sol  =         0.00000000
  ---------------------------------------------------
  free energy    TOTEN  =      -208.82684809 eV

  energy without entropy =     -208.82684807  energy(sigma->0) =     -208.82684808


--------------------------------------------------------------------------------------------------------




--------------------------------------- Iteration      1(  12)  ---------------------------------------


    POTLOK:  cpu time      0.1771: real time      0.1773
    SETDIJ:  cpu time      0.6643: real time      0.6643
     EDDAV:  cpu time     41.7235: real time     41.7368
       DOS:  cpu time      0.0014: real time      0.0016
    CHARGE:  cpu time      1.2654: real time      1.2654
    MIXING:  cpu time      0.0069: real time      0.0069
    --------------------------------------------
      LOOP:  cpu time     43.8387: real time     43.8524

 eigenvalue-minimisations  :  7720
 total energy-change (2. order) :-0.9895889E-03  (-0.8034184E-03)
 number of electron     384.0000005 magnetization 
 augmentation part       95.0125505 magnetization 

 Broyden mixing:
  rms(total) = 0.16666E-01    rms(broyden)= 0.16661E-01
  rms(prec ) = 0.19544E-01
  weight for this iteration     100.00

 eigenvalues of (default mixing * dielectric matrix)
  average eigenvalue GAMMA=   1.3919
  2.5062  2.4181  0.8107  0.8107  1.1158  1.1158  0.9663

 Free energy of the ion-electron system (eV)
  ---------------------------------------------------
  alpha Z        PSCENC =      1308.50698147
  Ewald energy   TEWEN  =    -29228.86870517
  -Hartree energ DENC   =    -11691.32567443
  -exchange      EXHF   =         0.00000000
  -V(xc)+E(xc)   XCENC  =      1250.09276567
  PAW double counting   =     36151.39679005   -35546.02003017
  entropy T*S    EENTRO =        -0.00000001
  eigenvalues    EBANDS =     -2794.26181098
  atomic energy  EATOM  =     40341.65184589
  Solvation  Ediel_sol  =         0.00000000
  ---------------------------------------------------
  free energy    TOTEN  =      -208.82783767 eV

  energy without entropy =     -208.82783766  energy(sigma->0) =     -208.82783767


--------------------------------------------------------------------------------------------------------




--------------------------------------- Iteration      1(  13)  ---------------------------------------


    POTLOK:  cpu time      0.1769: real time      0.1770
    SETDIJ:  cpu time      0.6661: real time      0.6661
     EDDAV:  cpu time     36.1724: real time     36.1721
       DOS:  cpu time      0.0014: real time      0.0015
    CHARGE:  cpu time      1.2654: real time      1.2655
    MIXING:  cpu time      0.0065: real time      0.0065
    --------------------------------------------
      LOOP:  cpu time     38.2887: real time     38.2887

 eigenvalue-minimisations  :  6376
 total energy-change (2. order) :-0.9658778E-05  (-0.7078672E-04)
 number of electron     384.0000005 magnetization 
 augmentation part       95.0114403 magnetization 

 Broyden mixing:
  rms(total) = 0.98278E-02    rms(broyden)= 0.98277E-02
  rms(prec ) = 0.11301E-01
  weight for this iteration     100.00

 eigenvalues of (default mixing * dielectric matrix)
  average eigenvalue GAMMA=   1.3730
  2.7361  2.4200  1.1409  1.0088  0.8290  0.8290  1.0103  1.0103

 Free energy of the ion-electron system (eV)
  ---------------------------------------------------
  alpha Z        PSCENC =      1308.50698147
  Ewald energy   TEWEN  =    -29228.86870517
  -Hartree energ DENC   =    -11690.91255373
  -exchange      EXHF   =         0.00000000
  -V(xc)+E(xc)   XCENC  =      1250.08348791
  PAW double counting   =     36142.57594255   -35537.52050801
  entropy T*S    EENTRO =        -0.00000001
  eigenvalues    EBANDS =     -2794.34433824
  atomic energy  EATOM  =     40341.65184589
  Solvation  Ediel_sol  =         0.00000000
  ---------------------------------------------------
  free energy    TOTEN  =      -208.82784733 eV

  energy without entropy =     -208.82784732  energy(sigma->0) =     -208.82784733


--------------------------------------------------------------------------------------------------------




--------------------------------------- Iteration      1(  14)  ---------------------------------------


    POTLOK:  cpu time      0.1766: real time      0.1766
    SETDIJ:  cpu time      0.6652: real time      0.6652
     EDDAV:  cpu time     38.2386: real time     38.2384
       DOS:  cpu time      0.0013: real time      0.0014
    CHARGE:  cpu time      1.2643: real time      1.2645
    MIXING:  cpu time      0.0072: real time      0.0072
    --------------------------------------------
      LOOP:  cpu time     40.3531: real time     40.3533

 eigenvalue-minimisations  :  6872
 total energy-change (2. order) : 0.7189019E-04  (-0.3078629E-04)
 number of electron     384.0000005 magnetization 
 augmentation part       95.0148051 magnetization 

 Broyden mixing:
  rms(total) = 0.46928E-02    rms(broyden)= 0.46918E-02
  rms(prec ) = 0.53890E-02
  weight for this iteration     100.00

 eigenvalues of (default mixing * dielectric matrix)
  average eigenvalue GAMMA=   1.2966
  2.7043  2.3643  1.2088  1.0532  1.0532  0.9876  0.8367  0.8367  0.6245

 Free energy of the ion-electron system (eV)
  ---------------------------------------------------
  alpha Z        PSCENC =      1308.50698147
  Ewald energy   TEWEN  =    -29228.86870517
  -Hartree energ DENC   =    -11690.78000005
  -exchange      EXHF   =         0.00000000
  -V(xc)+E(xc)   XCENC  =      1250.07251745
  PAW double counting   =     36138.94210263   -35533.88828099
  entropy T*S    EENTRO =        -0.00000001
  eigenvalues    EBANDS =     -2794.46423666
  atomic energy  EATOM  =     40341.65184589
  Solvation  Ediel_sol  =         0.00000000
  ---------------------------------------------------
  free energy    TOTEN  =      -208.82777544 eV

  energy without entropy =     -208.82777543  energy(sigma->0) =     -208.82777544


--------------------------------------------------------------------------------------------------------




--------------------------------------- Iteration      1(  15)  ---------------------------------------


    POTLOK:  cpu time      0.1767: real time      0.1768
    SETDIJ:  cpu time      0.6653: real time      0.6654
     EDDAV:  cpu time     43.5513: real time     43.5619
       DOS:  cpu time      0.0013: real time      0.0014
    CHARGE:  cpu time      1.2667: real time      1.2667
    MIXING:  cpu time      0.0071: real time      0.0071
    --------------------------------------------
      LOOP:  cpu time     45.6685: real time     45.6793

 eigenvalue-minimisations  :  8160
 total energy-change (2. order) : 0.1858771E-04  (-0.4920280E-05)
 number of electron     384.0000005 magnetization 
 augmentation part       95.0168200 magnetization 

 Broyden mixing:
  rms(total) = 0.26520E-02    rms(broyden)= 0.26516E-02
  rms(prec ) = 0.29485E-02
  weight for this iteration     100.00

 eigenvalues of (default mixing * dielectric matrix)
  average eigenvalue GAMMA=   1.3207
  2.6918  2.3936  1.3170  1.3170  1.1728  0.9704  0.8237  0.8237  0.8485  0.8485

 Free energy of the ion-electron system (eV)
  ---------------------------------------------------
  alpha Z        PSCENC =      1308.50698147
  Ewald energy   TEWEN  =    -29228.86870517
  -Hartree energ DENC   =    -11690.71245258
  -exchange      EXHF   =         0.00000000
  -V(xc)+E(xc)   XCENC  =      1250.06679946
  PAW double counting   =     36138.31429780   -35533.23672151
  entropy T*S    EENTRO =        -0.00000001
  eigenvalues    EBANDS =     -2794.54980220
  atomic energy  EATOM  =     40341.65184589
  Solvation  Ediel_sol  =         0.00000000
  ---------------------------------------------------
  free energy    TOTEN  =      -208.82775686 eV

  energy without entropy =     -208.82775684  energy(sigma->0) =     -208.82775685


--------------------------------------------------------------------------------------------------------




--------------------------------------- Iteration      1(  16)  ---------------------------------------


    POTLOK:  cpu time      0.1773: real time      0.1773
    SETDIJ:  cpu time      0.6643: real time      0.6643
     EDDAV:  cpu time     36.2002: real time     36.2397
       DOS:  cpu time      0.0018: real time      0.0019
    CHARGE:  cpu time      1.2658: real time      1.2667
    MIXING:  cpu time      0.0075: real time      0.0075
    --------------------------------------------
      LOOP:  cpu time     38.3169: real time     38.3575

 eigenvalue-minimisations  :  6392
 total energy-change (2. order) : 0.4009775E-05  (-0.4384434E-06)
 number of electron     384.0000005 magnetization 
 augmentation part       95.0173543 magnetization 

 Broyden mixing:
[...]
    168       4.1112      2.00000
    169       4.5297      2.00000
    170       4.5298      2.00000
    171       4.5516      2.00000
    172       4.5516      2.00000
    173       4.6938      2.00000
    174       4.6969      2.00000
    175       4.7119      2.00000
    176       4.7119      2.00000
    177       4.8104      2.00000
    178       4.8104      2.00000
    179       4.8293      2.00000
    180       4.8352      2.00000
    181       5.2151      2.00000
    182       5.2225      2.00000
    183       5.2225      2.00000
    184       5.2435      2.00000
    185       5.6603      2.00000
    186       5.6603      2.00000
    187       5.6738      2.00000
    188       5.6915      2.00000
    189       5.7648      2.00000
    190       5.7648      2.00000
    191       5.7767      2.00000
    192       5.7907      2.00000
    193       7.7880      0.00000
    194       7.8133      0.00000
    195       7.8133      0.00000
    196       7.8467      0.00000
    197       8.5321      0.00000
    198       8.5619      0.00000
    199       8.5619      0.00000
    200       8.5943      0.00000
    201       9.0284      0.00000
    202       9.0386      0.00000
    203       9.0581      0.00000
    204       9.0581      0.00000
    205       9.3332      0.00000
    206       9.3475      0.00000
    207       9.3741      0.00000
    208       9.3741      0.00000
    209       9.5133      0.00000
    210       9.5133      0.00000
    211       9.5403      0.00000
    212       9.5735      0.00000
    213       9.5913      0.00000
    214       9.5913      0.00000
    215       9.5950      0.00000
    216       9.6207      0.00000
    217      10.3958      0.00000
    218      10.3958      0.00000
    219      10.4108      0.00000
    220      10.4293      0.00000
    221      10.4618      0.00000
    222      10.4624      0.00000
    223      10.4624      0.00000
    224      10.4741      0.00000
    225      11.0531      0.00000
    226      11.0621      0.00000
    227      11.0624      0.00000
    228      11.1338      0.00000
    229      11.1429      0.00000
    230      11.1461      0.00000
    231      11.1546      0.00000
    232      11.1554      0.00000


--------------------------------------------------------------------------------------------------------


 soft charge-density along one line, spin component           1
         0         1         2         3         4         5         6         7         8         9
 total charge-density along one line
 
 pseudopotential strength for first ion, spin component:           1
-17.851   0.001   0.001   0.001   0.000   4.025  -0.000  -0.000
  0.001 -17.837   0.001  -0.001  -0.001  -0.000   4.019  -0.000
  0.001   0.001 -17.860   0.001  -0.000  -0.000  -0.000   4.032
  0.001  -0.001   0.001 -17.837   0.001  -0.000   0.000  -0.000
  0.000  -0.001  -0.000   0.001 -17.833  -0.000   0.001   0.000
  4.025  -0.000  -0.000  -0.000  -0.000   5.766   0.000   0.000
 -0.000   4.019  -0.000   0.000   0.001   0.000   5.768   0.000
 -0.000  -0.000   4.032  -0.000   0.000   0.000   0.000   5.766
 -0.000   0.000  -0.000   4.019  -0.001   0.000  -0.000   0.000
 -0.000   0.001   0.000  -0.001   4.015  -0.000  -0.000  -0.000
 -0.000   0.000   0.004   0.000  -0.000   0.000  -0.000   0.004
  0.000  -0.000  -0.005  -0.000  -0.000  -0.000   0.000  -0.006
  0.000  -0.017  -0.000  -0.000  -0.000   0.000   0.003   0.000
 -0.000   0.000  -0.019   0.000   0.000  -0.000   0.000   0.003
  0.000  -0.000  -0.000  -0.017   0.000   0.000  -0.000   0.000
  0.000  -0.028  -0.000  -0.000  -0.000   0.000   0.003   0.000
 -0.000   0.000  -0.030   0.000   0.000  -0.000   0.000  -0.000
  0.000  -0.000  -0.000  -0.028   0.000   0.000  -0.000   0.000
 total augmentation occupancy for first ion, spin component:           1
  1.999   0.000   0.000   0.000   0.000  -0.005   0.000   0.000   0.000   0.000  -0.000  -0.000  -0.000  -0.000  -0.000   0.000
  0.000   1.998  -0.000  -0.000   0.000   0.000  -0.006   0.000  -0.000  -0.000   0.000   0.000   0.034   0.000  -0.000  -0.012
  0.000  -0.000   2.000  -0.000  -0.000   0.000   0.000  -0.003   0.000   0.000   0.001   0.000   0.000   0.031   0.000  -0.000
  0.000  -0.000  -0.000   1.998  -0.000   0.000  -0.000   0.000  -0.006   0.000   0.000   0.000  -0.000   0.000   0.034   0.000
  0.000   0.000  -0.000  -0.000   1.997   0.000  -0.000   0.000   0.000  -0.008   0.000   0.000   0.000   0.000  -0.000  -0.000
 -0.005   0.000   0.000   0.000   0.000   0.019   0.000   0.000   0.000   0.000  -0.000  -0.000   0.002  -0.001   0.002  -0.000
  0.000  -0.006   0.000  -0.000  -0.000   0.000   0.043   0.000  -0.000  -0.000   0.000   0.001  -0.079   0.000  -0.002   0.011
  0.000   0.000  -0.003   0.000   0.000   0.000   0.000   0.015   0.000  -0.000   0.012  -0.005  -0.001   0.007  -0.001   0.000
  0.000  -0.000   0.000  -0.006   0.000   0.000  -0.000   0.000   0.043   0.000   0.000   0.001  -0.002   0.000  -0.079   0.000
  0.000  -0.000   0.000   0.000  -0.008   0.000  -0.000  -0.000   0.000   0.050   0.000  -0.000   0.001   0.000  -0.001  -0.000
 -0.000   0.000   0.001   0.000   0.000  -0.000   0.000   0.012   0.000   0.000   2.044  -0.028  -0.000   0.166  -0.000  -0.000
 -0.000   0.000   0.000   0.000   0.000  -0.000   0.001  -0.005   0.001  -0.000  -0.028   0.029   0.001  -0.075   0.001   0.000
 -0.000   0.034   0.000  -0.000   0.000   0.002  -0.079  -0.001  -0.002   0.001  -0.000   0.001   0.873   0.006  -0.005  -0.077
 -0.000   0.000   0.031   0.000   0.000  -0.001   0.000   0.007   0.000   0.000   0.166  -0.075   0.006   0.939   0.006  -0.001
 -0.000  -0.000   0.000   0.034  -0.000   0.002  -0.002  -0.001  -0.079  -0.001  -0.000   0.001  -0.005   0.006   0.873   0.000
  0.000  -0.012  -0.000   0.000  -0.000  -0.000   0.011   0.000   0.000  -0.000  -0.000   0.000  -0.077  -0.001   0.000   0.009
  0.000   0.000  -0.019   0.000  -0.000   0.000   0.000  -0.000   0.000   0.000  -0.012   0.007  -0.001  -0.077  -0.001   0.000
  0.000   0.000  -0.000  -0.012   0.000  -0.000   0.000   0.000   0.011   0.000  -0.000   0.000   0.000  -0.001  -0.077  -0.000


------------------------ aborting loop because EDIFF is reached ----------------------------------------


    CHARGE:  cpu time      1.2671: real time      1.2681
    FORLOC:  cpu time      0.0183: real time      0.0183
    FORNL :  cpu time      6.0632: real time      6.0657
    STRESS:  cpu time     19.9128: real time     19.9125
    FORCOR:  cpu time      0.1799: real time      0.1801
    FORHAR:  cpu time      0.0590: real time      0.0590
    MIXING:  cpu time      0.0049: real time      0.0049
    OFIELD:  cpu time      0.0001: real time      0.0001

  FORCE on cell =-STRESS in cart. coord.  units (eV):
  Direction    XX          YY          ZZ          XY          YZ          ZX
  --------------------------------------------------------------------------------------
  Alpha Z  1308.50698  1308.50698  1308.50698
  Ewald   -7922.18433 -7922.18433-13384.61320    -0.00000     0.00000     0.00000
  Hartree  5492.60920  5492.60920   705.41996    -0.00000    -0.00000    -0.00000
  E(xc)   -1824.53962 -1824.53962 -1826.31024     0.00000    -0.00000    -0.00000
  Local   -5750.81248 -5750.81248  4506.73646    -0.00000     0.00000    -0.00000
  n-local  1574.03058  1582.07917  1583.18212     0.44745    -0.05635     0.10866
  augment  2176.37596  2176.37596  2161.25047    -0.00000     0.00000     0.00000
  Kinetic  4931.62181  4940.39635  4941.32035    -3.43452     0.45037    -0.51425
  Fock        0.00000     0.00000     0.00000     0.00000     0.00000     0.00000
  -------------------------------------------------------------------------------------
  Total      -5.98034    -5.98034    -4.50709     0.00000     0.00000     0.00000
  in kB     -12.41150   -12.41150    -9.35393     0.00000     0.00000     0.00000
  external pressure =      -11.39 kB  Pullay stress =        0.00 kB


 VOLUME and BASIS-vectors are now :
 -----------------------------------------------------------------------------
  energy-cutoff  :      520.00
  volume of cell :      771.99
      direct lattice vectors                 reciprocal lattice vectors
     7.879359844  0.000000000  0.000000000     0.126913864  0.000000000  0.000000000
     0.000000000  7.879359844  0.000000000     0.000000000  0.126913864  0.000000000
     0.000000000  0.000000000 12.434565315     0.000000000  0.000000000  0.080420986

  length of vectors
     7.879359844  7.879359844 12.434565315     0.126913864  0.126913864  0.080420986


 FORCES acting on ions
    electron-ion (+dipol)            ewald-force                    non-local-force                 convergence-correction
 -----------------------------------------------------------------------------------------------
   -.584E+01 -.584E+01 -.440E+03   0.574E+01 0.574E+01 0.451E+03   0.990E-01 0.990E-01 -.107E+02   0.596E-07 0.596E-07 -.483E-06
   0.584E+01 -.584E+01 -.440E+03   -.574E+01 0.574E+01 0.451E+03   -.990E-01 0.990E-01 -.107E+02   -.596E-07 0.596E-07 -.483E-06
   -.584E+01 0.584E+01 -.440E+03   0.574E+01 -.574E+01 0.451E+03   0.990E-01 -.990E-01 -.107E+02   0.596E-07 -.596E-07 -.483E-06
   0.584E+01 0.584E+01 -.440E+03   -.574E+01 -.574E+01 0.451E+03   -.990E-01 -.990E-01 -.107E+02   -.596E-07 -.596E-07 -.483E-06
   0.136E-11 -.185E-10 0.471E+03   0.568E-13 0.284E-13 -.482E+03   -.379E-18 -.167E-18 0.106E+02   0.101E-10 -.962E-12 0.161E-05
   0.738E-12 0.134E-11 0.470E+03   0.171E-12 0.293E-13 -.481E+03   -.244E-17 -.543E-18 0.106E+02   -.105E-10 0.431E-11 -.430E-06
   0.138E-11 0.798E-11 0.470E+03   -.853E-13 0.853E-13 -.481E+03   -.124E-17 -.177E-18 0.106E+02   0.318E-11 0.266E-11 -.430E-06
   0.731E-12 -.206E-11 0.470E+03   0.114E-12 0.000E+00 -.481E+03   0.782E-18 -.655E-19 0.107E+02   -.363E-11 -.337E-12 -.254E-05
   0.138E-11 0.128E-11 -.471E+03   -.284E-13 0.284E-13 0.482E+03   -.389E-18 -.137E-18 -.106E+02   -.125E-11 -.292E-12 -.161E-05
   0.678E-12 -.586E-12 -.470E+03   -.171E-12 0.853E-13 0.481E+03   0.158E-17 -.225E-18 -.106E+02   0.924E-12 -.332E-11 0.430E-06
   0.135E-11 -.198E-11 -.470E+03   0.142E-12 -.568E-13 0.481E+03   0.610E-18 0.688E-18 -.106E+02   -.385E-11 -.228E-12 0.430E-06
   0.700E-12 0.814E-11 -.470E+03   -.568E-13 -.153E-12 0.481E+03   -.937E-18 -.904E-19 -.107E+02   0.354E-11 0.136E-11 0.254E-05
   -.584E+01 -.584E+01 0.440E+03   0.574E+01 0.574E+01 -.451E+03   0.990E-01 0.990E-01 0.107E+02   0.596E-07 0.596E-07 0.483E-06
   0.584E+01 -.584E+01 0.440E+03   -.574E+01 0.574E+01 -.451E+03   -.990E-01 0.990E-01 0.107E+02   -.596E-07 0.596E-07 0.483E-06
   -.584E+01 0.584E+01 0.440E+03   0.574E+01 -.574E+01 -.451E+03   0.990E-01 -.990E-01 0.107E+02   0.596E-07 -.596E-07 0.483E-06
   0.584E+01 0.584E+01 0.440E+03   -.574E+01 -.574E+01 -.451E+03   -.990E-01 -.990E-01 0.107E+02   -.596E-07 -.596E-07 0.483E-06
   0.282E-13 0.457E-13 -.235E-12   0.000E+00 0.142E-13 0.844E-11   -.124E-26 0.216E-26 -.396E-26   0.482E-12 0.114E-11 0.447E-11
   0.456E-13 0.186E-11 -.123E-11   -.568E-13 -.568E-13 0.842E-11   -.701E-27 0.167E-26 -.361E-26   -.345E-11 -.831E-12 0.465E-11
   0.260E-13 -.566E-12 -.951E-12   0.284E-13 0.000E+00 0.533E-11   -.933E-27 -.232E-26 -.504E-27   0.337E-11 -.109E-11 0.504E-11
   -.215E+01 -.215E+01 -.135E-07   0.217E+01 0.217E+01 -.778E-12   -.108E-01 -.108E-01 -.995E-21   0.968E-06 0.968E-06 -.480E-11
   0.215E+01 -.215E+01 -.187E-11   -.217E+01 0.217E+01 -.792E-12   0.108E-01 -.108E-01 0.173E-21   -.968E-06 0.968E-06 -.780E-11
   -.215E+01 0.215E+01 -.780E-12   0.217E+01 -.217E+01 -.824E-12   -.108E-01 0.108E-01 -.108E-21   0.968E-06 -.968E-06 -.463E-11
   0.215E+01 0.215E+01 0.135E-07   -.217E+01 -.217E+01 -.817E-12   0.108E-01 0.108E-01 0.874E-21   -.968E-06 -.968E-06 -.986E-11
   0.476E-12 -.214E+01 0.841E+01   -.426E-13 0.214E+01 -.855E+01   -.110E-18 0.914E-02 0.149E+00   0.194E-11 -.189E-06 -.785E-06
   0.273E-12 -.154E+01 0.392E+01   0.426E-13 0.151E+01 -.378E+01   -.135E-18 0.230E-01 -.146E+00   -.214E-11 -.196E-06 -.689E-06
   0.499E-12 0.214E+01 0.841E+01   -.711E-13 -.214E+01 -.855E+01   -.305E-19 -.914E-02 0.149E+00   0.344E-11 0.189E-06 -.785E-06
   0.264E-12 0.154E+01 0.392E+01   0.711E-13 -.151E+01 -.378E+01   -.121E-18 -.230E-01 -.146E+00   -.362E-11 0.196E-06 -.689E-06
   -.214E+01 -.279E-11 0.841E+01   0.214E+01 -.107E-13 -.855E+01   0.914E-02 -.379E-18 0.149E+00   -.189E-06 0.368E-12 -.785E-06
   0.214E+01 0.235E-12 0.841E+01   -.214E+01 -.142E-13 -.855E+01   -.914E-02 -.290E-19 0.149E+00   0.189E-06 0.138E-11 -.785E-06
   -.154E+01 -.303E-12 0.392E+01   0.151E+01 -.533E-13 -.378E+01   0.230E-01 0.197E-18 -.146E+00   -.196E-06 0.819E-12 -.689E-06
   0.154E+01 0.199E-12 0.392E+01   -.151E+01 -.426E-13 -.378E+01   -.230E-01 -.418E-19 -.146E+00   0.196E-06 -.140E-11 -.689E-06
   -.214E+01 -.285E-12 -.841E+01   0.214E+01 0.320E-13 0.855E+01   0.914E-02 0.339E-19 -.149E+00   -.189E-06 -.118E-12 0.785E-06
   0.214E+01 0.213E-11 -.841E+01   -.214E+01 0.284E-13 0.855E+01   -.914E-02 -.103E-18 -.149E+00   0.189E-06 -.347E-11 0.785E-06
   -.154E+01 -.224E-11 -.392E+01   0.151E+01 -.284E-13 0.378E+01   0.230E-01 -.336E-18 0.146E+00   -.196E-06 0.117E-12 0.689E-06
   0.154E+01 0.232E-11 -.392E+01   -.151E+01 0.284E-13 0.378E+01   -.230E-01 -.270E-18 0.146E+00   0.196E-06 0.227E-11 0.689E-06
   0.478E-12 -.214E+01 -.841E+01   -.284E-13 0.214E+01 0.855E+01   0.213E-19 0.914E-02 -.149E+00   -.689E-12 -.189E-06 0.785E-06
   0.217E-12 -.154E+01 -.392E+01   0.426E-13 0.151E+01 0.378E+01   -.109E-18 0.230E-01 0.146E+00   0.575E-12 -.196E-06 0.689E-06
   0.485E-12 0.214E+01 -.841E+01   -.284E-13 -.214E+01 0.855E+01   0.164E-18 -.914E-02 -.149E+00   -.278E-11 0.189E-06 0.785E-06
   0.217E-12 0.154E+01 -.392E+01   0.568E-13 -.151E+01 0.378E+01   0.223E-18 -.230E-01 0.146E+00   0.263E-11 0.196E-06 0.689E-06
   0.348E-13 -.118E-11 -.125E-11   0.000E+00 -.142E-13 0.533E-11   -.613E-26 0.251E-27 -.160E-26   -.547E-12 0.379E-12 0.463E-11
 -----------------------------------------------------------------------------------------------
   0.138E-10 0.101E-10 -.308E-09   -.568E-13 -.174E-12 0.107E-12   -.317E-17 -.347E-17 -.716E-14   -.133E-12 0.283E-11 0.491E-10
 
 
 POSITION                                       TOTAL-FORCE (eV/Angst)
 -----------------------------------------------------------------------------------
      1.96149      1.96149     10.61359         0.000000      0.000000     -0.000002
      5.91787      1.96149     10.61359        -0.000000      0.000000     -0.000002
      1.96149      5.91787     10.61359         0.000000     -0.000000     -0.000002
      5.91787      5.91787     10.61359        -0.000000     -0.000000     -0.000002
      7.87936      7.87936      8.05073        -0.000000      0.000000      0.000002
      3.93968      7.87936      8.06064        -0.000000      0.000000      0.000001
      7.87936      3.93968      8.06064        -0.000000      0.000000      0.000001
      3.93968      3.93968      8.07187        -0.000000      0.000000      0.000001
      7.87936      0.00000      4.38384        -0.000000      0.000000     -0.000002
      3.93968      0.00000      4.37392        -0.000000      0.000000     -0.000001
      7.87936      3.93968      4.37392        -0.000000      0.000000     -0.000001
      3.93968      3.93968      4.36269        -0.000000      0.000000     -0.000001
      1.96149      1.96149      1.82097         0.000000      0.000000      0.000002
      5.91787      1.96149      1.82097        -0.000000      0.000000      0.000002
      1.96149      5.91787      1.82097         0.000000     -0.000000      0.000002
      5.91787      5.91787      1.82097        -0.000000     -0.000000      0.000002
      3.93968      7.87936      0.00000        -0.000000      0.000000     -0.000000
      7.87936      3.93968      0.00000        -0.000000      0.000000     -0.000000
      3.93968      3.93968      0.00000        -0.000000      0.000000     -0.000000
      1.97022      1.97022      6.21728        -0.000007     -0.000007     -0.000000
      5.90914      1.97022      6.21728         0.000007     -0.000007     -0.000000
      1.97022      5.90914      6.21728        -0.000007      0.000007     -0.000000
      5.90914      5.90914      6.21728         0.000007      0.000007     -0.000000
      7.87936      1.96642      9.33227        -0.000000      0.000001      0.000002
      3.93968      1.96749      9.34283        -0.000000      0.000002      0.000001
      7.87936      5.91294      9.33227        -0.000000     -0.000001      0.000002
      3.93968      5.91187      9.34283        -0.000000     -0.000002      0.000001
      1.96642      7.87936      9.33227         0.000001      0.000000      0.000002
      5.91294      0.00000      9.33227        -0.000001      0.000000      0.000002
      1.96749      3.93968      9.34283         0.000002      0.000000      0.000001
      5.91187      3.93968      9.34283        -0.000002      0.000000      0.000001
      1.96642      0.00000      3.10230         0.000001      0.000000     -0.000002
      5.91294      7.87936      3.10230        -0.000001      0.000000     -0.000002
      1.96749      3.93968      3.09173         0.000002      0.000000     -0.000001
      5.91187      3.93968      3.09173        -0.000002      0.000000     -0.000001
      7.87936      1.96642      3.10230        -0.000000      0.000001     -0.000002
      3.93968      1.96749      3.09173        -0.000000      0.000002     -0.000001
      7.87936      5.91294      3.10230        -0.000000     -0.000001     -0.000002
      3.93968      5.91187      3.09173        -0.000000     -0.000002     -0.000001
      7.87936      7.87936      0.00000        -0.000000      0.000000     -0.000000
 -----------------------------------------------------------------------------------
    total drift:                                0.000000      0.000000     -0.000000


--------------------------------------------------------------------------------------------------------



  FREE ENERGIE OF THE ION-ELECTRON SYSTEM (eV)
  ---------------------------------------------------
  free  energy   TOTEN  =      -208.82774798 eV

  energy  without entropy=     -208.82774797  energy(sigma->0) =     -208.82774797
 
 d Force = 0.1556783E-10[ 0.736E-11, 0.238E-10]  d Energy = 0.5966285E-09-0.581E-09
 d Force =-0.1159194E-04[-0.116E-04,-0.116E-04]  d Ewald  =-0.1159220E-04 0.262E-09


--------------------------------------------------------------------------------------------------------


    POTLOK:  cpu time      0.8430: real time      0.8433


--------------------------------------------------------------------------------------------------------




--------------------------------------------------------------------------------------------------------


  
 reached required accuracy - stopping structural energy minimisation
     LOOP+:  cpu time    153.2877: real time    153.3273
    4ORBIT:  cpu time      0.0000: real time      0.0000

 total amount of memory used by VASP MPI-rank0    95653. kBytes
=======================================================================

   base      :      30000. kBytes
   nonl-proj :      17581. kBytes
   fftplans  :      13006. kBytes
   grid      :       8308. kBytes
   one-center:         77. kBytes
   wavefun   :      26681. kBytes
 
  
  
 General timing and accounting informations for this job:
 ========================================================
  
                  Total CPU time used (sec):     1401.929
                            User time (sec):     1398.237
                          System time (sec):        3.692
                         Elapsed time (sec):     1402.278
  
                   Maximum memory used (kb):      192836.
                   Average memory used (kb):          N/A
  
                          Minor page faults:        35835
                          Major page faults:           10
                 Voluntary context switches:          151
