<?xml version="1.0" encoding="ISO-8859-1"?>
<modeling>
 <generator>
  <i name="program" type="string">vasp </i>
  <i name="version" type="string">6.4.3  </i>
  <i name="subversion" type="string">19Mar24 (build Apr 09 2025 20:43:19) complex                          parallel </i>
  <i name="platform" type="string">LinuxIFC </i>
  <i name="date" type="string">2025 04 14 </i>
  <i name="time" type="string">02:11:33 </i>
 </generator>
 <incar>
  <i type="string" name="PREC">Accurate</i>
  <i type="int" name="IALGO">    38</i>
  <i type="logical" name="ADDGRID"> T  </i>
  <i type="int" name="NELMIN">     5</i>
  <i type="int" name="IBRION">     2</i>
  <i name="EDIFF">      0.00000001</i>
  <i name="EDIFFG">     -0.00001000</i>
  <i type="int" name="NSW">   100</i>
  <i type="int" name="ISIF">     2</i>
  <i name="ENCUT">    520.00000000</i>
  <i type="logical" name="LREAL"> F  </i>
  <i type="int" name="ISMEAR">     0</i>
  <i name="SIGMA">      0.05000000</i>
  <i type="logical" name="LWAVE"> F  </i>
  <i type="logical" name="LCHARG"> F  </i>
 </incar>
 <primitive_cell>
  <structure name="primitive_cell" >
   <crystal>
    <varray name="basis" >
     <v>       7.87935984       0.00000000       0.00000000 </v>
     <v>       0.00000000       7.87935984       0.00000000 </v>
     <v>       0.00000000       0.00000000      12.43456532 </v>
    </varray>
    <i name="volume">    771.99142703 </i>
    <varray name="rec_basis" >
     <v>       0.12691386       0.00000000       0.00000000 </v>
     <v>       0.00000000       0.12691386       0.00000000 </v>
     <v>       0.00000000       0.00000000       0.08042099 </v>
    </varray>
   </crystal>
   <varray name="positions" >
    <v>       0.24894077       0.24894077       0.85355549 </v>
    <v>       0.75105923       0.24894077       0.85355549 </v>
    <v>       0.24894077       0.75105923       0.85355549 </v>
    <v>       0.75105923       0.75105923       0.85355549 </v>
    <v>       0.00000000       0.00000000       0.64744756 </v>
    <v>       0.50000000       0.00000000       0.64824476 </v>
    <v>       0.00000000       0.50000000       0.64824476 </v>
    <v>       0.50000000       0.50000000       0.64914787 </v>
    <v>       0.00000000       0.00000000       0.35255244 </v>
    <v>       0.50000000       0.00000000       0.35175524 </v>
    <v>       0.00000000       0.50000000       0.35175524 </v>
    <v>       0.50000000       0.50000000       0.35085213 </v>
    <v>       0.24894077       0.24894077       0.14644451 </v>
    <v>       0.75105923       0.24894077       0.14644451 </v>
    <v>       0.24894077       0.75105923       0.14644451 </v>
    <v>       0.75105923       0.75105923       0.14644451 </v>
    <v>       0.50000000       0.00000000       0.00000000 </v>
    <v>       0.00000000       0.50000000       0.00000000 </v>
    <v>       0.50000000       0.50000000       0.00000000 </v>
    <v>       0.25004869       0.25004869       0.50000000 </v>
    <v>       0.74995131       0.25004869       0.50000000 </v>
    <v>       0.25004869       0.74995131       0.50000000 </v>
    <v>       0.74995131       0.74995131       0.50000000 </v>
    <v>       0.00000000       0.24956546       0.75051027 </v>
    <v>       0.50000000       0.24970122       0.75135973 </v>
    <v>       0.00000000       0.75043454       0.75051027 </v>
    <v>       0.50000000       0.75029878       0.75135973 </v>
    <v>       0.24956546       0.00000000       0.75051027 </v>
    <v>       0.75043454       0.00000000       0.75051027 </v>
    <v>       0.24970122       0.50000000       0.75135973 </v>
    <v>       0.75029878       0.50000000       0.75135973 </v>
    <v>       0.24956546       0.00000000       0.24948973 </v>
    <v>       0.75043454       0.00000000       0.24948973 </v>
    <v>       0.24970122       0.50000000       0.24864027 </v>
    <v>       0.75029878       0.50000000       0.24864027 </v>
    <v>       0.00000000       0.24956546       0.24948973 </v>
    <v>       0.50000000       0.24970122       0.24864027 </v>
    <v>       0.00000000       0.75043454       0.24948973 </v>
    <v>       0.50000000       0.75029878       0.24864027 </v>
    <v>       0.00000000       0.00000000       0.00000000 </v>
   </varray>
  </structure>
  <varray name="primitive_index" >
   <v type="int" >        1 </v>
   <v type="int" >        2 </v>
   <v type="int" >        3 </v>
   <v type="int" >        4 </v>
   <v type="int" >        5 </v>
   <v type="int" >        6 </v>
   <v type="int" >        7 </v>
   <v type="int" >        8 </v>
   <v type="int" >        9 </v>
   <v type="int" >       10 </v>
   <v type="int" >       11 </v>
   <v type="int" >       12 </v>
   <v type="int" >       13 </v>
   <v type="int" >       14 </v>
   <v type="int" >       15 </v>
   <v type="int" >       16 </v>
   <v type="int" >       17 </v>
   <v type="int" >       18 </v>
   <v type="int" >       19 </v>
   <v type="int" >       20 </v>
   <v type="int" >       21 </v>
   <v type="int" >       22 </v>
   <v type="int" >       23 </v>
   <v type="int" >       24 </v>
   <v type="int" >       25 </v>
   <v type="int" >       26 </v>
   <v type="int" >       27 </v>
   <v type="int" >       28 </v>
   <v type="int" >       29 </v>
   <v type="int" >       30 </v>
   <v type="int" >       31 </v>
   <v type="int" >       32 </v>
   <v type="int" >       33 </v>
   <v type="int" >       34 </v>
   <v type="int" >       35 </v>
   <v type="int" >       36 </v>
   <v type="int" >       37 </v>
   <v type="int" >       38 </v>
   <v type="int" >       39 </v>
   <v type="int" >       40 </v>
  </varray>
 </primitive_cell>
 <kpoints>
  <generation param="Gamma">
   <v type="int" name="divisions">       4        4        3 </v>
   <v name="usershift">      0.00000000       0.00000000       0.00000000 </v>
   <v name="genvec1">      0.25000000       0.00000000       0.00000000 </v>
   <v name="genvec2">      0.00000000       0.25000000       0.00000000 </v>
   <v name="genvec3">      0.00000000       0.00000000       0.33333333 </v>
   <v name="shift">      0.00000000       0.00000000       0.00000000 </v>
  </generation>
  <varray name="kpointlist" >
   <v>       0.00000000       0.00000000       0.00000000 </v>
   <v>       0.25000000       0.00000000       0.00000000 </v>
   <v>       0.50000000       0.00000000       0.00000000 </v>
   <v>       0.25000000       0.25000000       0.00000000 </v>
   <v>       0.50000000       0.25000000       0.00000000 </v>
   <v>       0.50000000       0.50000000       0.00000000 </v>
   <v>       0.00000000       0.00000000       0.33333333 </v>
   <v>       0.25000000       0.00000000       0.33333333 </v>
   <v>       0.50000000       0.00000000       0.33333333 </v>
   <v>       0.25000000       0.25000000       0.33333333 </v>
   <v>       0.50000000       0.25000000       0.33333333 </v>
   <v>       0.50000000       0.50000000       0.33333333 </v>
  </varray>
  <varray name="weights" >
   <v>       0.02083333 </v>
   <v>       0.08333333 </v>
   <v>       0.04166667 </v>
   <v>       0.08333333 </v>
   <v>       0.08333333 </v>
   <v>       0.02083333 </v>
   <v>       0.04166667 </v>
   <v>       0.16666667 </v>
   <v>       0.08333333 </v>
   <v>       0.16666667 </v>
   <v>       0.16666667 </v>
   <v>       0.04166667 </v>
  </varray>
 </kpoints>
 <parameters>
  <separator name="general" >
   <i type="string" name="SYSTEM">unknown system</i>
   <i type="logical" name="LCOMPAT"> F  </i>
  </separator>
  <separator name="electronic" >
   <i type="string" name="PREC">accura</i>
   <i name="ENMAX">    520.00000000</i>
   <i name="ENAUG">    605.39200000</i>
   <i name="EDIFF">      0.00000001</i>
   <i type="int" name="IALGO">    38</i>
   <i type="int" name="IWAVPR">    11</i>
   <i type="int" name="NBANDS">   232</i>
   <i type="int" name="NBANDSLOW">    -1</i>
   <i type="int" name="NBANDSHIGH">    -1</i>
   <i name="NELECT">    384.00000000</i>
   <i type="int" name="TURBO">     0</i>
   <i type="int" name="IRESTART">     0</i>
   <i type="int" name="NREBOOT">     0</i>
   <i type="int" name="NMIN">     0</i>
   <i name="EREF">      0.00000000</i>
   <separator name="electronic smearing" >
    <i type="int" name="ISMEAR">     0</i>
    <i name="SIGMA">      0.05000000</i>
    <i name="KSPACING">      0.50000000</i>
    <i type="logical" name="KGAMMA"> T  </i>
    <i type="logical" name="KBLOWUP"> T  </i>
   </separator>
   <separator name="electronic projectors" >
    <i type="logical" name="LREAL"> F  </i>
    <v name="ROPT">      0.00000000      0.00000000      0.00000000      0.00000000</v>
    <i type="int" name="LMAXPAW">  -100</i>
    <i type="int" name="LMAXMIX">     2</i>
    <i type="logical" name="NLSPLINE"> F  </i>
   </separator>
   <separator name="electronic startup" >
    <i type="int" name="ISTART">     0</i>
    <i type="int" name="ICHARG">     2</i>
    <i type="int" name="INIWAV">     1</i>
   </separator>
   <separator name="electronic spin" >
    <i type="int" name="ISPIN">     1</i>
    <i type="logical" name="LNONCOLLINEAR"> F  </i>
    <v name="MAGMOM">      1.00000000      1.00000000      1.00000000      1.00000000      1.00000000      1.00000000      1.00000000      1.00000000      1.00000000      1.00000000      1.00000000      1.00000000      1.00000000      1.00000000      1.00000000      1.00000000      1.00000000      1.00000000      1.00000000      1.00000000
      1.00000000      1.00000000      1.00000000      1.00000000      1.00000000      1.00000000      1.00000000      1.00000000      1.00000000      1.00000000      1.00000000      1.00000000      1.00000000      1.00000000      1.00000000      1.00000000      1.00000000      1.00000000      1.00000000      1.00000000
</v>
    <i name="NUPDOWN">     -1.00000000</i>
    <i type="logical" name="LSORBIT"> F  </i>
    <v name="SAXIS">      0.00000000      0.00000000      1.00000000</v>
    <i type="logical" name="LSPIRAL"> F  </i>
    <v name="QSPIRAL">      0.00000000      0.00000000      0.00000000</v>
    <i type="logical" name="LZEROZ"> F  </i>
   </separator>
   <separator name="electronic exchange-correlation" >
    <i type="logical" name="LASPH"> F  </i>
   </separator>
   <separator name="electronic convergence" >
    <i type="int" name="NELM">    60</i>
    <i type="int" name="NELMDL">    -5</i>
    <i type="int" name="NELMIN">     5</i>
    <i name="ENINI">    520.00000000</i>
    <separator name="electronic convergence detail" >
     <i type="logical" name="LDIAG"> T  </i>
     <i type="logical" name="LSUBROT"> F  </i>
     <i name="WEIMIN">      0.00100000</i>
     <i name="EBREAK">      0.00000000</i>
     <i name="DEPER">      0.30000000</i>
     <i type="int" name="NRMM">     4</i>
     <i name="TIME">      0.40000000</i>
    </separator>
   </separator>
   <separator name="electronic mixer" >
    <i name="AMIX">      0.40000000</i>
    <i name="BMIX">      1.00000000</i>
    <i name="AMIN">      0.10000000</i>
    <i name="AMIX_MAG">      1.60000000</i>
    <i name="BMIX_MAG">      1.00000000</i>
    <separator name="electronic mixer details" >
     <i type="int" name="IMIX">     4</i>
     <i type="logical" name="MIXFIRST"> F  </i>
     <i type="int" name="MAXMIX">   -45</i>
     <i name="WC">    100.00000000</i>
     <i type="int" name="INIMIX">     1</i>
     <i type="int" name="MIXPRE">     1</i>
     <i type="int" name="MREMOVE">     5</i>
    </separator>
   </separator>
   <separator name="electronic dipolcorrection" >
    <i type="logical" name="LDIPOL"> F  </i>
    <i type="logical" name="LMONO"> F  </i>
    <i type="int" name="IDIPOL">     0</i>
    <i name="EPSILON">      1.00000000</i>
    <v name="DIPOL">   -100.00000000   -100.00000000   -100.00000000</v>
    <i name="EFIELD">      0.00000000</i>
    <i type="logical" name="LVACPOTAV"> F  </i>
   </separator>
  </separator>
  <separator name="grids" >
   <i type="int" name="NGX">    60</i>
   <i type="int" name="NGY">    60</i>
   <i type="int" name="NGZ">    96</i>
   <i type="int" name="NGXF">   120</i>
   <i type="int" name="NGYF">   120</i>
   <i type="int" name="NGZF">   192</i>
   <i type="logical" name="ADDGRID"> T  </i>
  </separator>
  <separator name="ionic" >
   <i type="int" name="NSW">   100</i>
   <i type="int" name="IBRION">     2</i>
   <i type="int" name="MDALGO">     0</i>
   <i type="int" name="ISIF">     2</i>
   <i name="PSTRESS">      0.00000000</i>
   <i name="EDIFFG">     -0.00001000</i>
   <i type="int" name="NFREE">     1</i>
   <i name="POTIM">      0.50000000</i>
   <i name="SMASS">     -3.00000000</i>
   <i name="SCALEE">      1.00000000</i>
  </separator>
  <separator name="ionic md" >
   <i name="TEBEG">      0.00010000</i>
   <i name="TEEND">      0.00010000</i>
   <i type="int" name="NBLOCK">     1</i>
   <i type="int" name="KBLOCK">   100</i>
   <i type="int" name="NPACO">   256</i>
   <i name="APACO">     10.00000000</i>
  </separator>
  <separator name="symmetry" >
   <i type="int" name="ISYM">     2</i>
   <i name="SYMPREC">      0.00001000</i>
  </separator>
  <separator name="dos" >
   <i type="int" name="LORBIT">     0</i>
   <v name="RWIGS">     -1.00000000     -1.00000000     -1.00000000     -1.00000000</v>
   <i type="int" name="NEDOS">   301</i>
   <i name="EMIN">     10.00000000</i>
   <i name="EMAX">    -10.00000000</i>
   <i name="EFERMI">      0.00000000</i>
  </separator>
  <separator name="writing" >
   <i type="int" name="NWRITE">     2</i>
   <i type="logical" name="LWAVE"> F  </i>
   <i type="logical" name="LDOWNSAMPLE"> F  </i>
   <i type="logical" name="LCHARG"> F  </i>
   <i type="logical" name="LPARD"> F  </i>
   <i type="logical" name="LVTOT"> F  </i>
   <i type="logical" name="LVHAR"> F  </i>
   <i type="logical" name="LELF"> F  </i>
   <i type="logical" name="LOPTICS"> F  </i>
   <v name="STM">      0.00000000      0.00000000      0.00000000      0.00000000      0.00000000      0.00000000      0.00000000</v>
  </separator>
  <separator name="performance" >
   <i type="int" name="NPAR">     4</i>
   <i type="int" name="NSIM">     4</i>
   <i type="int" name="NBLK">    -1</i>
   <i type="logical" name="LPLANE"> T  </i>
   <i type="logical" name="LSCALAPACK"> T  </i>
   <i type="logical" name="LSCAAWARE"> F  </i>
   <i type="logical" name="LSCALU"> F  </i>
   <i type="logical" name="LASYNC"> F  </i>
   <i type="logical" name="LORBITALREAL"> F  </i>
  </separator>
  <separator name="miscellaneous" >
   <i type="int" name="IDIOT">     3</i>
   <i type="int" name="PHON_NSTRUCT">    -1</i>
   <i type="logical" name="LMUSIC"> F  </i>
   <v name="POMASS">    208.98000000     78.96000000     16.00000000     32.06600000</v>
   <v name="DARWINR">      0.00000000      0.00000000      0.00000000      0.00000000</v>
   <v name="DARWINV">      1.00000000      1.00000000      1.00000000      1.00000000</v>
   <i type="logical" name="LCORR"> T  </i>
  </separator>
  <i type="logical" name="GGA_COMPAT"> T  </i>
  <i type="logical" name="LBERRY"> F  </i>
  <i type="int" name="ICORELEVEL">     0</i>
  <i type="logical" name="LDAU"> F  </i>
  <i type="int" name="I_CONSTRAINED_M">     0</i>
  <separator name="electronic exchange-correlation" >
   <i type="string" name="GGA    ">PE</i>
   <i type="string" name="XC_C">1</i>
   <i type="int" name="VOSKOWN">     0</i>
   <i type="logical" name="LHFCALC"> F  </i>
   <i type="string" name="PRECFOCK"></i>
   <i type="logical" name="LSYMGRAD"> F  </i>
   <i type="logical" name="LHFONE"> F  </i>
   <i type="logical" name="LRHFCALC"> F  </i>
   <i type="logical" name="LTHOMAS"> F  </i>
   <i type="logical" name="LMODELHF"> F  </i>
   <i type="logical" name="LFOCKACE"> F  </i>
   <i name="ENCUT4O">     -1.00000000</i>
   <i type="int" name="EXXOEP">     0</i>
   <i type="int" name="FOURORBIT">     0</i>
   <i name="AEXX">      0.00000000</i>
   <i name="HFALPHA">      0.00000000</i>
   <i name="MCALPHA">      0.00000000</i>
   <i name="ALDAX">      1.00000000</i>
   <i name="AGGAX">      1.00000000</i>
   <i name="AMGGAX">      1.00000000</i>
   <i name="ALDAC">      1.00000000</i>
   <i name="AGGAC">      1.00000000</i>
   <i name="AMGGAC">      1.00000000</i>
   <i type="int" name="NKREDX">     1</i>
   <i type="int" name="NKREDY">     1</i>
   <i type="int" name="NKREDZ">     1</i>
   <i type="logical" name="SHIFTRED"> F  </i>
   <i type="logical" name="ODDONLY"> F  </i>
   <i type="logical" name="EVENONLY"> F  </i>
   <i type="int" name="LMAXFOCK">     0</i>
   <i type="int" name="NMAXFOCKAE">     0</i>
   <i type="logical" name="LFOCKAEDFT"> F  </i>
   <i name="HFSCREEN">      0.00000000</i>
   <i name="HFSCREENC">      0.00000000</i>
   <i type="int" name="NBANDSGWLOW">     0</i>
  </separator>
  <separator name="vdW DFT" >
   <i type="logical" name="LUSE_VDW"> F  </i>
   <i type="int" name="IVDW_NL">    -1</i>
   <i type="logical" name="LSPIN_VDW"> F  </i>
   <i name="ZAB_VDW">     -0.84910000</i>
   <i name="GAMMA_VDW">      1.39626340</i>
   <i name="ALPHA_VDW">      0.00000000</i>
   <i name="PARAM1">      0.12340000</i>
   <i name="PARAM2">      1.00000000</i>
   <i name="BPARAM">      6.30000000</i>
   <i name="CPARAM">      0.00930000</i>
  </separator>
  <separator name="model GW" >
   <i type="int" name="MODEL_GW">     0</i>
   <i name="MODEL_EPS0">     11.57987141</i>
   <i name="MODEL_ALPHA">      1.00000000</i>
  </separator>
  <separator name="linear response parameters" >
   <i type="logical" name="LEPSILON"> F  </i>
   <i type="logical" name="LRPA"> F  </i>
   <i type="logical" name="LNABLA"> F  </i>
   <i type="logical" name="LVEL"> F  </i>
   <i name="CSHIFT">      0.10000000</i>
   <i name="OMEGAMAX">     -1.00000000</i>
   <i name="DEG_THRESHOLD">      0.00200000</i>
   <i name="RTIME">     -0.10000000</i>
   <i name="WPLASMAI">      0.00000000</i>
   <v name="DFIELD">      0.00000000      0.00000000      0.00000000</v>
   <v name="WPLASMA">      0.00000000      0.00000000      0.00000000      0.00000000      0.00000000      0.00000000      0.00000000      0.00000000      0.00000000</v>
  </separator>
  <separator name="orbital magnetization" >
   <i type="logical" name="NUCIND"> F  </i>
   <v name="MAGPOS">      0.00000000      0.00000000      0.00000000</v>
   <i type="logical" name="LNICSALL"> T  </i>
   <i type="logical" name="ORBITALMAG"> F  </i>
   <i type="logical" name="LMAGBLOCH"> F  </i>
   <i type="logical" name="LCHIMAG"> F  </i>
   <i type="logical" name="LGAUGE"> T  </i>
   <i type="int" name="MAGATOM">     0</i>
   <v name="MAGDIPOL">      0.00000000      0.00000000      0.00000000</v>
   <v name="AVECCONST">      0.00000000      0.00000000      0.00000000</v>
  </separator>
  <separator name="response functions" >
   <i type="logical" name="LALL_IN_ONE"> F  </i>
   <i type="int" name="IALL_IN_ONE">    -1</i>
   <i type="int" name="NBANDS_WAVE">    -1</i>
   <i type="logical" name="LFINITE_TEMPERATURE"> F  </i>
   <i type="logical" name="LADDER"> F  </i>
   <i type="logical" name="LRPAFORCE"> F  </i>
   <i type="logical" name="LFXC"> F  </i>
   <i type="logical" name="LHARTREE"> T  </i>
   <i type="int" name="IBSE">     0</i>
   <v type="int" name="KPOINT">    -1     0     0     0</v>
   <i type="logical" name="LTCTC"> F  </i>
   <i type="logical" name="LTCTE"> F  </i>
   <i type="logical" name="LTETE"> F  </i>
   <i type="logical" name="LTRIPLET"> F  </i>
   <i type="logical" name="LFXCEPS"> F  </i>
   <i type="logical" name="LFXHEG"> F  </i>
   <i type="int" name="NATURALO">     2</i>
   <i type="logical" name="LHOLEGF"> F  </i>
   <i type="logical" name="L2ORDER"> F  </i>
   <i type="logical" name="LDMP1"> F  </i>
   <i type="logical" name="LMP2LT"> F  </i>
   <i type="logical" name="LSMP2LT"> F  </i>
   <i type="logical" name="LGWLF"> F  </i>
   <i name="ENCUTGW">     -1.60000002</i>
   <i name="ENCUTGWSOFT">     -1.60000002</i>
   <i name="ENCUTLF">     -1.00000000</i>
   <i type="logical" name="ESF_SPLINES"> F  </i>
   <i name="ESF_CONV">      0.01000000</i>
   <i type="int" name="ESF_NINTER">    15</i>
   <i type="int" name="LMAXMP2">    -1</i>
   <i name="SCISSOR">      0.00000000</i>
   <i type="int" name="NOMEGA">     0</i>
   <i type="int" name="NOMEGAR">     0</i>
   <i type="int" name="NBANDSGW">    -1</i>
   <i type="int" name="NBANDSO">    -1</i>
   <i type="int" name="NBANDSV">    -1</i>
   <i type="int" name="NELMGW">     1</i>
   <i type="int" name="NELMHF">     1</i>
   <i type="int" name="DIM">     3</i>
   <i type="int" name="IESPILON">     4</i>
   <i type="int" name="ANTIRES">     0</i>
   <i name="OMEGAMAX">    -30.00000000</i>
   <i name="OMEGAMIN">    -30.00000000</i>
   <i name="OMEGATL">   -200.00000000</i>
   <i type="int" name="OMEGAGRID">     0</i>
   <i name="CSHIFT">     -0.10000000</i>
   <i type="logical" name="LSELFENERGY"> F  </i>
   <i type="logical" name="LSPECTRAL"> F  </i>
   <i type="logical" name="LSPECTRALGW"> F  </i>
   <i type="logical" name="LSINGLES"> F  </i>
   <i type="logical" name="LFERMIGW"> F  </i>
   <i type="logical" name="ODDONLYGW"> F  </i>
   <i type="logical" name="EVENONLYGW"> F  </i>
   <i type="int" name="NKREDLFX">     1</i>
   <i type="int" name="NKREDLFY">     1</i>
   <i type="int" name="NKREDLFZ">     1</i>
   <i type="int" name="MAXMEM">  2800</i>
   <i type="int" name="TELESCOPE">     0</i>
   <i type="int" name="NTAUPAR">    -1</i>
   <i type="int" name="NOMEGAPAR">    -1</i>
   <i name="DAMP_NEWTON">      0.80000001</i>
   <i name="LAMBDA">      1.00000000</i>
  </separator>
  <separator name="External order field" >
   <i name="OFIELD_KAPPA">      0.00000000</i>
   <v name="OFIELD_K">      0.00000000      0.00000000      0.00000000</v>
   <i name="OFIELD_Q6_NEAR">      0.00000000</i>
   <i name="OFIELD_Q6_FAR">      0.00000000</i>
   <i name="OFIELD_A">      0.00000000</i>
  </separator>
  <separator name="optional k-points parameters" >
   <i type="int" name="KPOINTS_OPT_MODE">     1</i>
   <i type="logical" name="LKPOINTS_OPT"> F  </i>
  </separator>
 </parameters>
 <atominfo>
  <atoms>      40 </atoms>
  <types>       4 </types>
  <array name="atoms" >
   <dimension dim="1">ion</dimension>
   <field type="string">element</field>
   <field type="int">atomtype</field>
   <set>
    <rc><c>Bi</c><c>   1</c></rc>
    <rc><c>Bi</c><c>   1</c></rc>
    <rc><c>Bi</c><c>   1</c></rc>
    <rc><c>Bi</c><c>   1</c></rc>
    <rc><c>Bi</c><c>   1</c></rc>
    <rc><c>Bi</c><c>   1</c></rc>
    <rc><c>Bi</c><c>   1</c></rc>
    <rc><c>Bi</c><c>   1</c></rc>
    <rc><c>Bi</c><c>   1</c></rc>
    <rc><c>Bi</c><c>   1</c></rc>
    <rc><c>Bi</c><c>   1</c></rc>
    <rc><c>Bi</c><c>   1</c></rc>
    <rc><c>Bi</c><c>   1</c></rc>
    <rc><c>Bi</c><c>   1</c></rc>
    <rc><c>Bi</c><c>   1</c></rc>
    <rc><c>Bi</c><c>   1</c></rc>
    <rc><c>Se</c><c>   2</c></rc>
    <rc><c>Se</c><c>   2</c></rc>
    <rc><c>Se</c><c>   2</c></rc>
    <rc><c>Se</c><c>   2</c></rc>
    <rc><c>Se</c><c>   2</c></rc>
    <rc><c>Se</c><c>   2</c></rc>
    <rc><c>Se</c><c>   2</c></rc>
    <rc><c>O </c><c>   3</c></rc>
    <rc><c>O </c><c>   3</c></rc>
    <rc><c>O </c><c>   3</c></rc>
    <rc><c>O </c><c>   3</c></rc>
    <rc><c>O </c><c>   3</c></rc>
    <rc><c>O </c><c>   3</c></rc>
    <rc><c>O </c><c>   3</c></rc>
    <rc><c>O </c><c>   3</c></rc>
    <rc><c>O </c><c>   3</c></rc>
    <rc><c>O </c><c>   3</c></rc>
    <rc><c>O </c><c>   3</c></rc>
    <rc><c>O </c><c>   3</c></rc>
    <rc><c>O </c><c>   3</c></rc>
    <rc><c>O </c><c>   3</c></rc>
    <rc><c>O </c><c>   3</c></rc>
    <rc><c>O </c><c>   3</c></rc>
    <rc><c>S </c><c>   4</c></rc>
   </set>
  </array>
  <array name="atomtypes" >
   <dimension dim="1">type</dimension>
   <field type="int">atomspertype</field>
   <field type="string">element</field>
   <field>mass</field>
   <field>valence</field>
   <field type="string">pseudopotential</field>
   <set>
    <rc><c>  16</c><c>Bi</c><c>    208.98000000</c><c>     15.00000000</c><c>  PAW_PBE Bi_d 06Sep2000                </c></rc>
    <rc><c>   7</c><c>Se</c><c>     78.96000000</c><c>      6.00000000</c><c>  PAW_PBE Se 06Sep2000                  </c></rc>
    <rc><c>  16</c><c>O </c><c>     16.00000000</c><c>      6.00000000</c><c>  PAW_PBE O 08Apr2002                   </c></rc>
    <rc><c>   1</c><c>S </c><c>     32.06600000</c><c>      6.00000000</c><c>  PAW_PBE S 06Sep2000                   </c></rc>
   </set>
  </array>
 </atominfo>
 <structure name="initialpos" >
  <crystal>
   <varray name="basis" >
    <v>       7.87935984       0.00000000       0.00000000 </v>
    <v>       0.00000000       7.87935984       0.00000000 </v>
    <v>       0.00000000       0.00000000      12.43456532 </v>
   </varray>
   <i name="volume">    771.99142703 </i>
   <varray name="rec_basis" >
    <v>       0.12691386       0.00000000       0.00000000 </v>
    <v>       0.00000000       0.12691386       0.00000000 </v>
    <v>       0.00000000       0.00000000       0.08042099 </v>
   </varray>
  </crystal>
  <varray name="positions" >
   <v>       0.24894077       0.24894077       0.85355549 </v>
   <v>       0.75105923       0.24894077       0.85355549 </v>
   <v>       0.24894077       0.75105923       0.85355549 </v>
   <v>       0.75105923       0.75105923       0.85355549 </v>
   <v>       0.00000000       0.00000000       0.64744756 </v>
   <v>       0.50000000       0.00000000       0.64824476 </v>
   <v>       0.00000000       0.50000000       0.64824476 </v>
   <v>       0.50000000       0.50000000       0.64914787 </v>
   <v>       0.00000000       0.00000000       0.35255244 </v>
   <v>       0.50000000       0.00000000       0.35175524 </v>
   <v>       0.00000000       0.50000000       0.35175524 </v>
   <v>       0.50000000       0.50000000       0.35085213 </v>
   <v>       0.24894077       0.24894077       0.14644451 </v>
   <v>       0.75105923       0.24894077       0.14644451 </v>
   <v>       0.24894077       0.75105923       0.14644451 </v>
   <v>       0.75105923       0.75105923       0.14644451 </v>
   <v>       0.50000000       0.00000000       0.00000000 </v>
   <v>       0.00000000       0.50000000       0.00000000 </v>
   <v>       0.50000000       0.50000000       0.00000000 </v>
   <v>       0.25004869       0.25004869       0.50000000 </v>
   <v>       0.74995131       0.25004869       0.50000000 </v>
   <v>       0.25004869       0.74995131       0.50000000 </v>
   <v>       0.74995131       0.74995131       0.50000000 </v>
   <v>       0.00000000       0.24956546       0.75051027 </v>
   <v>       0.50000000       0.24970122       0.75135973 </v>
   <v>       0.00000000       0.75043454       0.75051027 </v>
   <v>       0.50000000       0.75029878       0.75135973 </v>
   <v>       0.24956546       0.00000000       0.75051027 </v>
   <v>       0.75043454       0.00000000       0.75051027 </v>
   <v>       0.24970122       0.50000000       0.75135973 </v>
   <v>       0.75029878       0.50000000       0.75135973 </v>
   <v>       0.24956546       0.00000000       0.24948973 </v>
   <v>       0.75043454       0.00000000       0.24948973 </v>
   <v>       0.24970122       0.50000000       0.24864027 </v>
   <v>       0.75029878       0.50000000       0.24864027 </v>
   <v>       0.00000000       0.24956546       0.24948973 </v>
   <v>       0.50000000       0.24970122       0.24864027 </v>
   <v>       0.00000000       0.75043454       0.24948973 </v>
   <v>       0.50000000       0.75029878       0.24864027 </v>
   <v>       0.00000000       0.00000000       0.00000000 </v>
  </varray>
 </structure>
 <calculation>
  <scstep>
   <time name="dav">   32.79   32.80</time>
   <time name="total">   33.64   33.65</time>
   <energy>
    <i name="alphaZ">   1308.50698147 </i>
    <i name="ewald"> -29228.86870517 </i>
    <i name="hartreedc"> -11532.44209565 </i>
    <i name="XCdc">   1233.10675816 </i>
    <i name="pawpsdc">  34040.00696010 </i>
    <i name="pawaedc"> -33495.80632930 </i>
    <i name="eentropy">     -0.00988785 </i>
    <i name="bandstr">   2940.08573051 </i>
    <i name="atom">  40341.65184589 </i>
    <i name="e_fr_energy">   5606.23125817 </i>
    <i name="e_wo_entrp">   5606.24114602 </i>
    <i name="e_0_energy">   5606.23620210 </i>
   </energy>
  </scstep>
  <scstep>
   <time name="dav">   32.81   32.81</time>
   <time name="total">   32.81   32.82</time>
   <energy>
    <i name="e_fr_energy">    959.06029427 </i>
    <i name="e_wo_entrp">    959.07026427 </i>
    <i name="e_0_energy">    959.06527927 </i>
   </energy>
  </scstep>
  <scstep>
   <time name="dav">   35.49   35.50</time>
   <time name="total">   35.49   35.50</time>
   <energy>
    <i name="e_fr_energy">   -111.65060018 </i>
    <i name="e_wo_entrp">   -111.65059990 </i>
    <i name="e_0_energy">   -111.65060004 </i>
   </energy>
  </scstep>
  <scstep>
   <time name="dav">   37.29   37.30</time>
   <time name="total">   37.29   37.30</time>
   <energy>
    <i name="e_fr_energy">   -237.81275458 </i>
    <i name="e_wo_entrp">   -237.81275458 </i>
    <i name="e_0_energy">   -237.81275458 </i>
   </energy>
  </scstep>
  <scstep>
   <time name="dav">   37.59   37.60</time>
   <time name="total">   38.85   38.85</time>
   <energy>
    <i name="e_fr_energy">   -243.53612293 </i>
    <i name="e_wo_entrp">   -243.53612293 </i>
    <i name="e_0_energy">   -243.53612293 </i>
   </energy>
  </scstep>
  <scstep>
   <time name="dav">   41.37   41.38</time>
   <time name="total">   43.49   43.49</time>
   <energy>
    <i name="e_fr_energy">   -209.01189224 </i>
    <i name="e_wo_entrp">   -209.01189224 </i>
    <i name="e_0_energy">   -209.01189224 </i>
   </energy>
  </scstep>
  <scstep>
   <time name="dav">   35.24   35.24</time>
   <time name="total">   37.35   37.36</time>
   <energy>
    <i name="e_fr_energy">   -208.76851050 </i>
    <i name="e_wo_entrp">   -208.76851050 </i>
    <i name="e_0_energy">   -208.76851050 </i>
   </energy>
  </scstep>
  <scstep>
   <time name="dav">   42.61   42.61</time>
   <time name="total">   44.73   44.73</time>
   <energy>
    <i name="e_fr_energy">   -208.91129717 </i>
    <i name="e_wo_entrp">   -208.91129684 </i>
    <i name="e_0_energy">   -208.91129701 </i>
   </energy>
  </scstep>
  <scstep>
   <time name="dav">   40.61   40.63</time>
   <time name="total">   42.73   42.75</time>
   <energy>
    <i name="e_fr_energy">   -208.83820707 </i>
    <i name="e_wo_entrp">   -208.83820706 </i>
    <i name="e_0_energy">   -208.83820706 </i>
   </energy>
  </scstep>
  <scstep>
   <time name="dav">   38.35   38.35</time>
   <time name="total">   40.47   40.47</time>
   <energy>
    <i name="e_fr_energy">   -208.82452516 </i>
    <i name="e_wo_entrp">   -208.82452514 </i>
    <i name="e_0_energy">   -208.82452515 </i>
   </energy>
  </scstep>
  <scstep>
   <time name="dav">   39.97   39.98</time>
   <time name="total">   42.09   42.10</time>
   <energy>
    <i name="e_fr_energy">   -208.82684809 </i>
    <i name="e_wo_entrp">   -208.82684807 </i>
    <i name="e_0_energy">   -208.82684808 </i>
   </energy>
  </scstep>
  <scstep>
   <time name="dav">   41.72   41.74</time>
   <time name="total">   43.84   43.85</time>
   <energy>
    <i name="e_fr_energy">   -208.82783767 </i>
    <i name="e_wo_entrp">   -208.82783766 </i>
    <i name="e_0_energy">   -208.82783767 </i>
   </energy>
  </scstep>
  <scstep>
   <time name="dav">   36.17   36.17</time>
   <time name="total">   38.29   38.29</time>
   <energy>
    <i name="e_fr_energy">   -208.82784733 </i>
    <i name="e_wo_entrp">   -208.82784732 </i>
    <i name="e_0_energy">   -208.82784733 </i>
   </energy>
  </scstep>
  <scstep>
   <time name="dav">   38.24   38.24</time>
   <time name="total">   40.35   40.35</time>
   <energy>
    <i name="e_fr_energy">   -208.82777544 </i>
    <i name="e_wo_entrp">   -208.82777543 </i>
    <i name="e_0_energy">   -208.82777544 </i>
   </energy>
  </scstep>
  <scstep>
   <time name="dav">   43.55   43.56</time>
   <time name="total">   45.67   45.68</time>
   <energy>
    <i name="e_fr_energy">   -208.82775686 </i>
    <i name="e_wo_entrp">   -208.82775684 </i>
    <i name="e_0_energy">   -208.82775685 </i>
   </energy>
  </scstep>
  <scstep>
   <time name="dav">   36.20   36.24</time>
   <time name="total">   38.32   38.36</time>
   <energy>
    <i name="e_fr_energy">   -208.82775285 </i>
    <i name="e_wo_entrp">   -208.82775283 </i>
    <i name="e_0_energy">   -208.82775284 </i>
   </energy>
  </scstep>
  <scstep>
   <time name="dav">   40.26   40.28</time>
   <time name="total">   42.37   42.40</time>
   <energy>
    <i name="e_fr_energy">   -208.82774762 </i>
    <i name="e_wo_entrp">   -208.82774761 </i>
    <i name="e_0_energy">   -208.82774761 </i>
   </energy>
  </scstep>
  <scstep>
   <time name="dav">   35.87   35.87</time>
   <time name="total">   37.99   37.99</time>
   <energy>
    <i name="e_fr_energy">   -208.82774747 </i>
    <i name="e_wo_entrp">   -208.82774746 </i>
    <i name="e_0_energy">   -208.82774747 </i>
   </energy>
  </scstep>
  <scstep>
   <time name="dav">   34.25   34.26</time>
   <time name="total">   36.37   36.38</time>
   <energy>
    <i name="e_fr_energy">   -208.82774770 </i>
    <i name="e_wo_entrp">   -208.82774768 </i>
    <i name="e_0_energy">   -208.82774769 </i>
   </energy>
  </scstep>
  <scstep>
   <time name="dav">   32.70   32.70</time>
   <time name="total">   34.82   34.82</time>
   <energy>
    <i name="e_fr_energy">   -208.82774791 </i>
    <i name="e_wo_entrp">   -208.82774789 </i>
    <i name="e_0_energy">   -208.82774790 </i>
   </energy>
  </scstep>
  <scstep>
   <time name="dav">   30.04   30.05</time>
   <time name="total">   32.16   32.17</time>
   <energy>
    <i name="e_fr_energy">   -208.82774802 </i>
    <i name="e_wo_entrp">   -208.82774801 </i>
    <i name="e_0_energy">   -208.82774802 </i>
   </energy>
  </scstep>
  <scstep>
   <time name="dav">   23.79   23.82</time>
   <time name="total">   25.91   25.94</time>
   <energy>
    <i name="e_fr_energy">   -208.82774800 </i>
    <i name="e_wo_entrp">   -208.82774799 </i>
    <i name="e_0_energy">   -208.82774800 </i>
   </energy>
  </scstep>
  <scstep>
   <time name="dav">   25.99   25.99</time>
   <time name="total">   28.11   28.11</time>
   <energy>
    <i name="e_fr_energy">   -208.82774797 </i>
    <i name="e_wo_entrp">   -208.82774795 </i>
    <i name="e_0_energy">   -208.82774796 </i>
   </energy>
  </scstep>
  <scstep>
   <time name="dav">   23.74   23.74</time>
   <time name="total">   24.59   24.59</time>
   <energy>
    <i name="alphaZ">   1308.50698147 </i>
    <i name="ewald"> -29228.86870517 </i>
    <i name="hartreedc"> -11690.63812001 </i>
    <i name="XCdc">   1250.06113345 </i>
    <i name="pawpsdc">  36136.78398118 </i>
    <i name="pawaedc"> -35531.68311542 </i>
    <i name="eentropy">     -0.00000001 </i>
    <i name="bandstr">  -2794.64174936 </i>
    <i name="atom">  40341.65184589 </i>
    <i name="e_fr_energy">   -208.82774797 </i>
    <i name="e_wo_entrp">   -208.82774796 </i>
    <i name="e_0_energy">   -208.82774796 </i>
   </energy>
  </scstep>
  <structure>
   <crystal>
    <varray name="basis" >
     <v>       7.87935984       0.00000000       0.00000000 </v>
     <v>       0.00000000       7.87935984       0.00000000 </v>
     <v>       0.00000000       0.00000000      12.43456532 </v>
    </varray>
    <i name="volume">    771.99142703 </i>
    <varray name="rec_basis" >
     <v>       0.12691386       0.00000000       0.00000000 </v>
     <v>       0.00000000       0.12691386       0.00000000 </v>
     <v>       0.00000000       0.00000000       0.08042099 </v>
    </varray>
   </crystal>
   <varray name="positions" >
    <v>       0.24894077       0.24894077       0.85355549 </v>
    <v>       0.75105923       0.24894077       0.85355549 </v>
    <v>       0.24894077       0.75105923       0.85355549 </v>
    <v>       0.75105923       0.75105923       0.85355549 </v>
    <v>       0.00000000       0.00000000       0.64744756 </v>
    <v>       0.50000000       0.00000000       0.64824476 </v>
    <v>       0.00000000       0.50000000       0.64824476 </v>
    <v>       0.50000000       0.50000000       0.64914787 </v>
    <v>       0.00000000       0.00000000       0.35255244 </v>
    <v>       0.50000000       0.00000000       0.35175524 </v>
    <v>       0.00000000       0.50000000       0.35175524 </v>
    <v>       0.50000000       0.50000000       0.35085213 </v>
    <v>       0.24894077       0.24894077       0.14644451 </v>
    <v>       0.75105923       0.24894077       0.14644451 </v>
    <v>       0.24894077       0.75105923       0.14644451 </v>
    <v>       0.75105923       0.75105923       0.14644451 </v>
    <v>       0.50000000       0.00000000       0.00000000 </v>
    <v>       0.00000000       0.50000000       0.00000000 </v>
    <v>       0.50000000       0.50000000       0.00000000 </v>
    <v>       0.25004869       0.25004869       0.50000000 </v>
    <v>       0.74995131       0.25004869       0.50000000 </v>
    <v>       0.25004869       0.74995131       0.50000000 </v>
    <v>       0.74995131       0.74995131       0.50000000 </v>
    <v>       0.00000000       0.24956546       0.75051027 </v>
    <v>       0.50000000       0.24970122       0.75135973 </v>
    <v>       0.00000000       0.75043454       0.75051027 </v>
    <v>       0.50000000       0.75029878       0.75135973 </v>
    <v>       0.24956546       0.00000000       0.75051027 </v>
    <v>       0.75043454       0.00000000       0.75051027 </v>
    <v>       0.24970122       0.50000000       0.75135973 </v>
    <v>       0.75029878       0.50000000       0.75135973 </v>
    <v>       0.24956546       0.00000000       0.24948973 </v>
    <v>       0.75043454       0.00000000       0.24948973 </v>
    <v>       0.24970122       0.50000000       0.24864027 </v>
    <v>       0.75029878       0.50000000       0.24864027 </v>
    <v>       0.00000000       0.24956546       0.24948973 </v>
    <v>       0.50000000       0.24970122       0.24864027 </v>
    <v>       0.00000000       0.75043454       0.24948973 </v>
    <v>       0.50000000       0.75029878       0.24864027 </v>
    <v>       0.00000000       0.00000000       0.00000000 </v>
   </varray>
  </structure>
  <varray name="forces" >
   <v>      -0.00000198      -0.00000198       0.00000174 </v>
   <v>       0.00000198      -0.00000198       0.00000174 </v>
   <v>      -0.00000198       0.00000198       0.00000174 </v>
   <v>       0.00000198       0.00000198       0.00000174 </v>
   <v>      -0.00000000      -0.00000000      -0.00000646 </v>
   <v>      -0.00000000      -0.00000000       0.00000177 </v>
   <v>      -0.00000000      -0.00000000       0.00000177 </v>
   <v>      -0.00000000       0.00000000       0.00000975 </v>
   <v>      -0.00000000       0.00000000       0.00000646 </v>
   <v>      -0.00000000       0.00000000      -0.00000177 </v>
   <v>      -0.00000000      -0.00000000      -0.00000177 </v>
   <v>      -0.00000000      -0.00000000      -0.00000975 </v>
   <v>      -0.00000198      -0.00000198      -0.00000174 </v>
   <v>       0.00000198      -0.00000198      -0.00000174 </v>
   <v>      -0.00000198       0.00000198      -0.00000174 </v>
   <v>       0.00000198       0.00000198      -0.00000174 </v>
   <v>      -0.00000000      -0.00000000       0.00000000 </v>
   <v>      -0.00000000      -0.00000000       0.00000000 </v>
   <v>      -0.00000000      -0.00000000       0.00000000 </v>
   <v>      -0.00000758      -0.00000758       0.00000000 </v>
   <v>       0.00000758      -0.00000758       0.00000000 </v>
   <v>      -0.00000758       0.00000758       0.00000000 </v>
   <v>       0.00000758       0.00000758       0.00000000 </v>
   <v>      -0.00000000       0.00000095       0.00000278 </v>
   <v>      -0.00000000       0.00000102       0.00000101 </v>
   <v>      -0.00000000      -0.00000095       0.00000278 </v>
   <v>      -0.00000000      -0.00000102       0.00000101 </v>
   <v>       0.00000095      -0.00000000       0.00000278 </v>
   <v>      -0.00000095       0.00000000       0.00000278 </v>
   <v>       0.00000102      -0.00000000       0.00000101 </v>
   <v>      -0.00000102      -0.00000000       0.00000101 </v>
   <v>       0.00000095       0.00000000      -0.00000278 </v>
   <v>      -0.00000095      -0.00000000      -0.00000278 </v>
   <v>       0.00000102       0.00000000      -0.00000101 </v>
   <v>      -0.00000102      -0.00000000      -0.00000101 </v>
   <v>      -0.00000000       0.00000095      -0.00000278 </v>
   <v>      -0.00000000       0.00000102      -0.00000101 </v>
   <v>      -0.00000000      -0.00000095      -0.00000278 </v>
   <v>      -0.00000000      -0.00000102      -0.00000101 </v>
   <v>      -0.00000000      -0.00000000       0.00000000 </v>
  </varray>
  <varray name="stress" >
   <v>     -12.41042496       0.00000000      -0.00000000 </v>
   <v>       0.00000000     -12.41042496       0.00000000 </v>
   <v>      -0.00000000       0.00000000      -9.35271091 </v>
  </varray>
  <energy>
   <i name="e_fr_energy">   -208.82774797 </i>
   <i name="e_wo_entrp">   -208.82774796 </i>
   <i name="e_0_energy">   -208.82774796 </i>
  </energy>
  <time name="totalsc">  928.50  928.74</time>
 </calculation>
 <calculation>
  <scstep>
   <time name="dav">   23.98   23.98</time>
   <time name="total">   26.11   26.11</time>
   <energy>
    <i name="alphaZ">   1308.50698147 </i>
    <i name="ewald"> -29228.86866778 </i>
    <i name="hartreedc"> -11690.63846852 </i>
    <i name="XCdc">   1250.06116243 </i>
    <i name="pawpsdc">  36136.78839139 </i>
    <i name="pawaedc"> -35531.68758014 </i>
    <i name="eentropy">     -0.00000001 </i>
    <i name="bandstr">  -2794.64141270 </i>
    <i name="atom">  40341.65184589 </i>
    <i name="e_fr_energy">   -208.82774798 </i>
    <i name="e_wo_entrp">   -208.82774797 </i>
    <i name="e_0_energy">   -208.82774797 </i>
   </energy>
  </scstep>
  <scstep>
   <time name="dav">   23.59   23.59</time>
   <time name="total">   25.71   25.71</time>
   <energy>
    <i name="e_fr_energy">   -208.82774798 </i>
    <i name="e_wo_entrp">   -208.82774797 </i>
    <i name="e_0_energy">   -208.82774797 </i>
   </energy>
  </scstep>
  <scstep>
   <time name="dav">   23.56   23.56</time>
   <time name="total">   25.67   25.67</time>
   <energy>
    <i name="e_fr_energy">   -208.82774798 </i>
    <i name="e_wo_entrp">   -208.82774797 </i>
    <i name="e_0_energy">   -208.82774797 </i>
   </energy>
  </scstep>
  <scstep>
   <time name="dav">   23.49   23.49</time>
   <time name="total">   25.60   25.61</time>
   <energy>
    <i name="e_fr_energy">   -208.82774798 </i>
    <i name="e_wo_entrp">   -208.82774797 </i>
    <i name="e_0_energy">   -208.82774797 </i>
   </energy>
  </scstep>
  <scstep>
   <time name="dav">   23.33   23.34</time>
   <time name="total">   24.18   24.18</time>
   <energy>
    <i name="alphaZ">   1308.50698147 </i>
    <i name="ewald"> -29228.86866778 </i>
    <i name="hartreedc"> -11690.63836670 </i>
    <i name="XCdc">   1250.06115742 </i>
    <i name="pawpsdc">  36136.79116815 </i>
    <i name="pawaedc"> -35531.69033536 </i>
    <i name="eentropy">     -0.00000001 </i>
    <i name="bandstr">  -2794.64153105 </i>
    <i name="atom">  40341.65184589 </i>
    <i name="e_fr_energy">   -208.82774798 </i>
    <i name="e_wo_entrp">   -208.82774797 </i>
    <i name="e_0_energy">   -208.82774797 </i>
   </energy>
  </scstep>
  <structure>
   <crystal>
    <varray name="basis" >
     <v>       7.87935984       0.00000000       0.00000000 </v>
     <v>       0.00000000       7.87935984       0.00000000 </v>
     <v>       0.00000000       0.00000000      12.43456532 </v>
    </varray>
    <i name="volume">    771.99142703 </i>
    <varray name="rec_basis" >
     <v>       0.12691386       0.00000000       0.00000000 </v>
     <v>       0.00000000       0.12691386       0.00000000 </v>
     <v>       0.00000000       0.00000000       0.08042099 </v>
    </varray>
   </crystal>
   <varray name="positions" >
    <v>       0.24894076       0.24894076       0.85355549 </v>
    <v>       0.75105924       0.24894076       0.85355549 </v>
    <v>       0.24894076       0.75105924       0.85355549 </v>
    <v>       0.75105924       0.75105924       0.85355549 </v>
    <v>       1.00000000       1.00000000       0.64744753 </v>
    <v>       0.50000000       1.00000000       0.64824476 </v>
    <v>       1.00000000       0.50000000       0.64824476 </v>
    <v>       0.50000000       0.50000000       0.64914791 </v>
    <v>       1.00000000       0.00000000       0.35255247 </v>
    <v>       0.50000000       0.00000000       0.35175524 </v>
    <v>       1.00000000       0.50000000       0.35175524 </v>
    <v>       0.50000000       0.50000000       0.35085209 </v>
    <v>       0.24894076       0.24894076       0.14644451 </v>
    <v>       0.75105924       0.24894076       0.14644451 </v>
    <v>       0.24894076       0.75105924       0.14644451 </v>
    <v>       0.75105924       0.75105924       0.14644451 </v>
    <v>       0.50000000       1.00000000       0.00000000 </v>
    <v>       1.00000000       0.50000000       0.00000000 </v>
    <v>       0.50000000       0.50000000       0.00000000 </v>
    <v>       0.25004865       0.25004865       0.50000000 </v>
    <v>       0.74995135       0.25004865       0.50000000 </v>
    <v>       0.25004865       0.74995135       0.50000000 </v>
    <v>       0.74995135       0.74995135       0.50000000 </v>
    <v>       1.00000000       0.24956547       0.75051028 </v>
    <v>       0.50000000       0.24970123       0.75135973 </v>
    <v>       1.00000000       0.75043453       0.75051028 </v>
    <v>       0.50000000       0.75029877       0.75135973 </v>
    <v>       0.24956547       1.00000000       0.75051028 </v>
    <v>       0.75043453       0.00000000       0.75051028 </v>
    <v>       0.24970123       0.50000000       0.75135973 </v>
    <v>       0.75029877       0.50000000       0.75135973 </v>
    <v>       0.24956547       0.00000000       0.24948972 </v>
    <v>       0.75043453       1.00000000       0.24948972 </v>
    <v>       0.24970123       0.50000000       0.24864027 </v>
    <v>       0.75029877       0.50000000       0.24864027 </v>
    <v>       1.00000000       0.24956547       0.24948972 </v>
    <v>       0.50000000       0.24970123       0.24864027 </v>
    <v>       1.00000000       0.75043453       0.24948972 </v>
    <v>       0.50000000       0.75029877       0.24864027 </v>
    <v>       1.00000000       1.00000000       0.00000000 </v>
   </varray>
  </structure>
  <varray name="forces" >
   <v>       0.00000749       0.00000749      -0.00000766 </v>
   <v>      -0.00000749       0.00000749      -0.00000766 </v>
   <v>       0.00000749      -0.00000749      -0.00000766 </v>
   <v>      -0.00000749      -0.00000749      -0.00000766 </v>
   <v>      -0.00000000      -0.00000000       0.00002486 </v>
   <v>       0.00000000      -0.00000000      -0.00000506 </v>
   <v>      -0.00000000      -0.00000000      -0.00000506 </v>
   <v>      -0.00000000       0.00000000      -0.00002745 </v>
   <v>       0.00000000       0.00000000      -0.00002486 </v>
   <v>       0.00000000       0.00000000       0.00000506 </v>
   <v>       0.00000000      -0.00000000       0.00000506 </v>
   <v>       0.00000000       0.00000000       0.00002745 </v>
   <v>       0.00000749       0.00000749       0.00000766 </v>
   <v>      -0.00000749       0.00000749       0.00000766 </v>
   <v>       0.00000749      -0.00000749       0.00000766 </v>
   <v>      -0.00000749      -0.00000749       0.00000766 </v>
   <v>       0.00000000       0.00000000       0.00000000 </v>
   <v>      -0.00000000      -0.00000000       0.00000000 </v>
   <v>       0.00000000      -0.00000000       0.00000000 </v>
   <v>      -0.00000619      -0.00000619       0.00000000 </v>
   <v>       0.00000619      -0.00000619       0.00000000 </v>
   <v>      -0.00000619       0.00000619       0.00000000 </v>
   <v>       0.00000619       0.00000619       0.00000000 </v>
   <v>      -0.00000000       0.00000096       0.00000134 </v>
   <v>      -0.00000000       0.00000136       0.00000122 </v>
   <v>       0.00000000      -0.00000096       0.00000134 </v>
   <v>      -0.00000000      -0.00000136       0.00000122 </v>
   <v>       0.00000096       0.00000000       0.00000134 </v>
   <v>      -0.00000096       0.00000000       0.00000134 </v>
   <v>       0.00000136       0.00000000       0.00000122 </v>
   <v>      -0.00000136      -0.00000000       0.00000122 </v>
   <v>       0.00000096       0.00000000      -0.00000134 </v>
   <v>      -0.00000096       0.00000000      -0.00000134 </v>
   <v>       0.00000136      -0.00000000      -0.00000122 </v>
   <v>      -0.00000136      -0.00000000      -0.00000122 </v>
   <v>      -0.00000000       0.00000096      -0.00000134 </v>
   <v>      -0.00000000       0.00000136      -0.00000122 </v>
   <v>       0.00000000      -0.00000096      -0.00000134 </v>
   <v>       0.00000000      -0.00000136      -0.00000122 </v>
   <v>      -0.00000000       0.00000000       0.00000000 </v>
  </varray>
  <varray name="stress" >
   <v>     -12.41151618       0.00000000       0.00000000 </v>
   <v>       0.00000000     -12.41151618       0.00000000 </v>
   <v>       0.00000000       0.00000000      -9.35393126 </v>
  </varray>
  <energy>
   <i name="e_fr_energy">   -208.82774798 </i>
   <i name="e_wo_entrp">   -208.82774797 </i>
   <i name="e_0_energy">   -208.82774797 </i>
  </energy>
  <time name="totalsc">  158.04  158.06</time>
 </calculation>
 <calculation>
  <scstep>
   <time name="dav">   23.26   23.27</time>
   <time name="total">   25.38   25.39</time>
   <energy>
    <i name="alphaZ">   1308.50698147 </i>
    <i name="ewald"> -29228.86868523 </i>
    <i name="hartreedc"> -11690.63835715 </i>
    <i name="XCdc">   1250.06115772 </i>
    <i name="pawpsdc">  36136.79117935 </i>
    <i name="pawaedc"> -35531.69034521 </i>
    <i name="eentropy">     -0.00000001 </i>
    <i name="bandstr">  -2794.64152481 </i>
    <i name="atom">  40341.65184589 </i>
    <i name="e_fr_energy">   -208.82774798 </i>
    <i name="e_wo_entrp">   -208.82774797 </i>
    <i name="e_0_energy">   -208.82774797 </i>
   </energy>
  </scstep>
  <scstep>
   <time name="dav">   23.07   23.08</time>
   <time name="total">   25.18   25.20</time>
   <energy>
    <i name="e_fr_energy">   -208.82774798 </i>
    <i name="e_wo_entrp">   -208.82774797 </i>
    <i name="e_0_energy">   -208.82774797 </i>
   </energy>
  </scstep>
  <scstep>
   <time name="dav">   23.05   23.05</time>
   <time name="total">   25.16   25.16</time>
   <energy>
    <i name="e_fr_energy">   -208.82774798 </i>
    <i name="e_wo_entrp">   -208.82774797 </i>
    <i name="e_0_energy">   -208.82774797 </i>
   </energy>
  </scstep>
  <scstep>
   <time name="dav">   23.05   23.05</time>
   <time name="total">   25.17   25.17</time>
   <energy>
    <i name="e_fr_energy">   -208.82774798 </i>
    <i name="e_wo_entrp">   -208.82774797 </i>
    <i name="e_0_energy">   -208.82774797 </i>
   </energy>
  </scstep>
  <scstep>
   <time name="dav">   23.02   23.03</time>
   <time name="total">   23.87   23.88</time>
   <energy>
    <i name="alphaZ">   1308.50698147 </i>
    <i name="ewald"> -29228.86868523 </i>
    <i name="hartreedc"> -11690.63834920 </i>
    <i name="XCdc">   1250.06115726 </i>
    <i name="pawpsdc">  36136.79114816 </i>
    <i name="pawaedc"> -35531.69031508 </i>
    <i name="eentropy">     -0.00000001 </i>
    <i name="bandstr">  -2794.64153124 </i>
    <i name="atom">  40341.65184589 </i>
    <i name="e_fr_energy">   -208.82774798 </i>
    <i name="e_wo_entrp">   -208.82774797 </i>
    <i name="e_0_energy">   -208.82774797 </i>
   </energy>
  </scstep>
  <structure>
   <crystal>
    <varray name="basis" >
     <v>       7.87935984       0.00000000       0.00000000 </v>
     <v>       0.00000000       7.87935984       0.00000000 </v>
     <v>       0.00000000       0.00000000      12.43456532 </v>
    </varray>
    <i name="volume">    771.99142703 </i>
    <varray name="rec_basis" >
     <v>       0.12691386       0.00000000       0.00000000 </v>
     <v>       0.00000000       0.12691386       0.00000000 </v>
     <v>       0.00000000       0.00000000       0.08042099 </v>
    </varray>
   </crystal>
   <varray name="positions" >
    <v>       0.24894077       0.24894077       0.85355549 </v>
    <v>       0.75105923       0.24894077       0.85355549 </v>
    <v>       0.24894077       0.75105923       0.85355549 </v>
    <v>       0.75105923       0.75105923       0.85355549 </v>
    <v>       0.00000000       0.00000000       0.64744754 </v>
    <v>       0.50000000       0.00000000       0.64824476 </v>
    <v>       0.00000000       0.50000000       0.64824476 </v>
    <v>       0.50000000       0.50000000       0.64914789 </v>
    <v>       0.00000000       0.00000000       0.35255246 </v>
    <v>       0.50000000       0.00000000       0.35175524 </v>
    <v>       0.00000000       0.50000000       0.35175524 </v>
    <v>       0.50000000       0.50000000       0.35085211 </v>
    <v>       0.24894077       0.24894077       0.14644451 </v>
    <v>       0.75105923       0.24894077       0.14644451 </v>
    <v>       0.24894077       0.75105923       0.14644451 </v>
    <v>       0.75105923       0.75105923       0.14644451 </v>
    <v>       0.50000000       0.00000000       0.00000000 </v>
    <v>       0.00000000       0.50000000       0.00000000 </v>
    <v>       0.50000000       0.50000000       0.00000000 </v>
    <v>       0.25004867       0.25004867       0.50000000 </v>
    <v>       0.74995133       0.25004867       0.50000000 </v>
    <v>       0.25004867       0.74995133       0.50000000 </v>
    <v>       0.74995133       0.74995133       0.50000000 </v>
    <v>       0.00000000       0.24956546       0.75051028 </v>
    <v>       0.50000000       0.24970123       0.75135973 </v>
    <v>       0.00000000       0.75043454       0.75051028 </v>
    <v>       0.50000000       0.75029877       0.75135973 </v>
    <v>       0.24956546       0.00000000       0.75051028 </v>
    <v>       0.75043454       0.00000000       0.75051028 </v>
    <v>       0.24970123       0.50000000       0.75135973 </v>
    <v>       0.75029877       0.50000000       0.75135973 </v>
    <v>       0.24956546       0.00000000       0.24948972 </v>
    <v>       0.75043454       0.00000000       0.24948972 </v>
    <v>       0.24970123       0.50000000       0.24864027 </v>
    <v>       0.75029877       0.50000000       0.24864027 </v>
    <v>       0.00000000       0.24956546       0.24948972 </v>
    <v>       0.50000000       0.24970123       0.24864027 </v>
    <v>       0.00000000       0.75043454       0.24948972 </v>
    <v>       0.50000000       0.75029877       0.24864027 </v>
    <v>       0.00000000       0.00000000       0.00000000 </v>
   </varray>
  </structure>
  <varray name="forces" >
   <v>      -0.00000540      -0.00000540       0.00000336 </v>
   <v>       0.00000540      -0.00000540       0.00000336 </v>
   <v>      -0.00000540       0.00000540       0.00000336 </v>
   <v>       0.00000540       0.00000540       0.00000336 </v>
   <v>       0.00000000      -0.00000000      -0.00001690 </v>
   <v>      -0.00000000      -0.00000000       0.00000664 </v>
   <v>       0.00000000      -0.00000000       0.00000664 </v>
   <v>       0.00000000      -0.00000000       0.00002656 </v>
   <v>      -0.00000000      -0.00000000       0.00001690 </v>
   <v>      -0.00000000       0.00000000      -0.00000664 </v>
   <v>      -0.00000000      -0.00000000      -0.00000664 </v>
   <v>       0.00000000       0.00000000      -0.00002656 </v>
   <v>      -0.00000540      -0.00000540      -0.00000336 </v>
   <v>       0.00000540      -0.00000540      -0.00000336 </v>
   <v>      -0.00000540       0.00000540      -0.00000336 </v>
   <v>       0.00000540       0.00000540      -0.00000336 </v>
   <v>      -0.00000000       0.00000000      -0.00000000 </v>
   <v>       0.00000000       0.00000000      -0.00000000 </v>
   <v>      -0.00000000       0.00000000      -0.00000000 </v>
   <v>      -0.00000774      -0.00000774      -0.00000000 </v>
   <v>       0.00000774      -0.00000774      -0.00000000 </v>
   <v>      -0.00000774       0.00000774      -0.00000000 </v>
   <v>       0.00000774       0.00000774      -0.00000000 </v>
   <v>      -0.00000000       0.00000178       0.00000349 </v>
   <v>      -0.00000000       0.00000215       0.00000136 </v>
   <v>       0.00000000      -0.00000178       0.00000349 </v>
   <v>      -0.00000000      -0.00000215       0.00000136 </v>
   <v>       0.00000178       0.00000000       0.00000349 </v>
   <v>      -0.00000178       0.00000000       0.00000349 </v>
   <v>       0.00000215      -0.00000000       0.00000136 </v>
   <v>      -0.00000215       0.00000000       0.00000136 </v>
   <v>       0.00000178      -0.00000000      -0.00000349 </v>
   <v>      -0.00000178      -0.00000000      -0.00000349 </v>
   <v>       0.00000215       0.00000000      -0.00000136 </v>
   <v>      -0.00000215      -0.00000000      -0.00000136 </v>
   <v>      -0.00000000       0.00000178      -0.00000349 </v>
   <v>      -0.00000000       0.00000215      -0.00000136 </v>
   <v>      -0.00000000      -0.00000178      -0.00000349 </v>
   <v>       0.00000000      -0.00000215      -0.00000136 </v>
   <v>       0.00000000      -0.00000000      -0.00000000 </v>
  </varray>
  <varray name="stress" >
   <v>     -12.41149504       0.00000000       0.00000000 </v>
   <v>       0.00000000     -12.41149504       0.00000000 </v>
   <v>       0.00000000       0.00000000      -9.35392433 </v>
  </varray>
  <energy>
   <i name="e_fr_energy">   -208.82774798 </i>
   <i name="e_wo_entrp">   -208.82774797 </i>
   <i name="e_0_energy">   -208.82774797 </i>
  </energy>
  <time name="totalsc">  155.54  155.58</time>
 </calculation>
 <calculation>
  <scstep>
   <time name="dav">   23.03   23.04</time>
   <time name="total">   25.15   25.17</time>
   <energy>
    <i name="alphaZ">   1308.50698147 </i>
    <i name="ewald"> -29228.86867363 </i>
    <i name="hartreedc"> -11690.63836075 </i>
    <i name="XCdc">   1250.06115726 </i>
    <i name="pawpsdc">  36136.79114910 </i>
    <i name="pawaedc"> -35531.69031615 </i>
    <i name="eentropy">     -0.00000001 </i>
    <i name="bandstr">  -2794.64153116 </i>
    <i name="atom">  40341.65184589 </i>
    <i name="e_fr_energy">   -208.82774798 </i>
    <i name="e_wo_entrp">   -208.82774797 </i>
    <i name="e_0_energy">   -208.82774797 </i>
   </energy>
  </scstep>
  <scstep>
   <time name="dav">   23.00   23.01</time>
   <time name="total">   25.12   25.13</time>
   <energy>
    <i name="e_fr_energy">   -208.82774798 </i>
    <i name="e_wo_entrp">   -208.82774797 </i>
    <i name="e_0_energy">   -208.82774797 </i>
   </energy>
  </scstep>
  <scstep>
   <time name="dav">   22.88   22.88</time>
   <time name="total">   25.00   25.00</time>
   <energy>
    <i name="e_fr_energy">   -208.82774798 </i>
    <i name="e_wo_entrp">   -208.82774797 </i>
    <i name="e_0_energy">   -208.82774797 </i>
   </energy>
  </scstep>
  <scstep>
   <time name="dav">   22.84   22.84</time>
   <time name="total">   24.96   24.96</time>
   <energy>
    <i name="e_fr_energy">   -208.82774798 </i>
    <i name="e_wo_entrp">   -208.82774797 </i>
    <i name="e_0_energy">   -208.82774797 </i>
   </energy>
  </scstep>
  <scstep>
   <time name="dav">   22.84   22.84</time>
   <time name="total">   23.69   23.69</time>
   <energy>
    <i name="alphaZ">   1308.50698147 </i>
    <i name="ewald"> -29228.86867363 </i>
    <i name="hartreedc"> -11690.63836042 </i>
    <i name="XCdc">   1250.06115724 </i>
    <i name="pawpsdc">  36136.79115297 </i>
    <i name="pawaedc"> -35531.69032018 </i>
    <i name="eentropy">     -0.00000001 </i>
    <i name="bandstr">  -2794.64153130 </i>
    <i name="atom">  40341.65184589 </i>
    <i name="e_fr_energy">   -208.82774798 </i>
    <i name="e_wo_entrp">   -208.82774797 </i>
    <i name="e_0_energy">   -208.82774797 </i>
   </energy>
  </scstep>
  <structure>
   <crystal>
    <varray name="basis" >
     <v>       7.87935984       0.00000000       0.00000000 </v>
     <v>       0.00000000       7.87935984       0.00000000 </v>
     <v>       0.00000000       0.00000000      12.43456532 </v>
    </varray>
    <i name="volume">    771.99142703 </i>
    <varray name="rec_basis" >
     <v>       0.12691386       0.00000000       0.00000000 </v>
     <v>       0.00000000       0.12691386       0.00000000 </v>
     <v>       0.00000000       0.00000000       0.08042099 </v>
    </varray>
   </crystal>
   <varray name="positions" >
    <v>       0.24894076       0.24894076       0.85355549 </v>
    <v>       0.75105924       0.24894076       0.85355549 </v>
    <v>       0.24894076       0.75105924       0.85355549 </v>
    <v>       0.75105924       0.75105924       0.85355549 </v>
    <v>       1.00000000       1.00000000       0.64744753 </v>
    <v>       0.50000000       1.00000000       0.64824476 </v>
    <v>       1.00000000       0.50000000       0.64824476 </v>
    <v>       0.50000000       0.50000000       0.64914790 </v>
    <v>       1.00000000       0.00000000       0.35255247 </v>
    <v>       0.50000000       0.00000000       0.35175524 </v>
    <v>       1.00000000       0.50000000       0.35175524 </v>
    <v>       0.50000000       0.50000000       0.35085210 </v>
    <v>       0.24894076       0.24894076       0.14644451 </v>
    <v>       0.75105924       0.24894076       0.14644451 </v>
    <v>       0.24894076       0.75105924       0.14644451 </v>
    <v>       0.75105924       0.75105924       0.14644451 </v>
    <v>       0.50000000       1.00000000       0.00000000 </v>
    <v>       1.00000000       0.50000000       0.00000000 </v>
    <v>       0.50000000       0.50000000       0.00000000 </v>
    <v>       0.25004865       0.25004865       0.50000000 </v>
    <v>       0.74995135       0.25004865       0.50000000 </v>
    <v>       0.25004865       0.74995135       0.50000000 </v>
    <v>       0.74995135       0.74995135       0.50000000 </v>
    <v>       1.00000000       0.24956547       0.75051028 </v>
    <v>       0.50000000       0.24970123       0.75135973 </v>
    <v>       1.00000000       0.75043453       0.75051028 </v>
    <v>       0.50000000       0.75029877       0.75135973 </v>
    <v>       0.24956547       1.00000000       0.75051028 </v>
    <v>       0.75043453       0.00000000       0.75051028 </v>
    <v>       0.24970123       0.50000000       0.75135973 </v>
    <v>       0.75029877       0.50000000       0.75135973 </v>
    <v>       0.24956547       0.00000000       0.24948972 </v>
    <v>       0.75043453       1.00000000       0.24948972 </v>
    <v>       0.24970123       0.50000000       0.24864027 </v>
    <v>       0.75029877       0.50000000       0.24864027 </v>
    <v>       1.00000000       0.24956547       0.24948972 </v>
    <v>       0.50000000       0.24970123       0.24864027 </v>
    <v>       1.00000000       0.75043453       0.24948972 </v>
    <v>       0.50000000       0.75029877       0.24864027 </v>
    <v>       1.00000000       1.00000000       0.00000000 </v>
   </varray>
  </structure>
  <varray name="forces" >
   <v>       0.00000029       0.00000029      -0.00000164 </v>
   <v>      -0.00000029       0.00000029      -0.00000164 </v>
   <v>       0.00000029      -0.00000029      -0.00000164 </v>
   <v>      -0.00000029      -0.00000029      -0.00000164 </v>
   <v>      -0.00000000       0.00000000       0.00000160 </v>
   <v>      -0.00000000       0.00000000       0.00000143 </v>
   <v>      -0.00000000       0.00000000       0.00000143 </v>
   <v>      -0.00000000       0.00000000       0.00000117 </v>
   <v>      -0.00000000       0.00000000      -0.00000160 </v>
   <v>      -0.00000000       0.00000000      -0.00000143 </v>
   <v>      -0.00000000       0.00000000      -0.00000143 </v>
   <v>      -0.00000000       0.00000000      -0.00000117 </v>
   <v>       0.00000029       0.00000029       0.00000164 </v>
   <v>      -0.00000029       0.00000029       0.00000164 </v>
   <v>       0.00000029      -0.00000029       0.00000164 </v>
   <v>      -0.00000029      -0.00000029       0.00000164 </v>
   <v>      -0.00000000       0.00000000      -0.00000000 </v>
   <v>      -0.00000000       0.00000000      -0.00000000 </v>
   <v>      -0.00000000       0.00000000      -0.00000000 </v>
   <v>      -0.00000702      -0.00000702      -0.00000000 </v>
   <v>       0.00000702      -0.00000702      -0.00000000 </v>
   <v>      -0.00000702       0.00000702      -0.00000000 </v>
   <v>       0.00000702       0.00000702      -0.00000000 </v>
   <v>      -0.00000000       0.00000135       0.00000235 </v>
   <v>      -0.00000000       0.00000169       0.00000125 </v>
   <v>      -0.00000000      -0.00000135       0.00000235 </v>
   <v>      -0.00000000      -0.00000169       0.00000125 </v>
   <v>       0.00000135       0.00000000       0.00000235 </v>
   <v>      -0.00000135       0.00000000       0.00000235 </v>
   <v>       0.00000169       0.00000000       0.00000125 </v>
   <v>      -0.00000169       0.00000000       0.00000125 </v>
   <v>       0.00000135       0.00000000      -0.00000235 </v>
   <v>      -0.00000135       0.00000000      -0.00000235 </v>
   <v>       0.00000169       0.00000000      -0.00000125 </v>
   <v>      -0.00000169       0.00000000      -0.00000125 </v>
   <v>      -0.00000000       0.00000135      -0.00000235 </v>
   <v>      -0.00000000       0.00000169      -0.00000125 </v>
   <v>      -0.00000000      -0.00000135      -0.00000235 </v>
   <v>      -0.00000000      -0.00000169      -0.00000125 </v>
   <v>      -0.00000000       0.00000000      -0.00000000 </v>
  </varray>
  <varray name="stress" >
   <v>     -12.41150173       0.00000000       0.00000000 </v>
   <v>       0.00000000     -12.41150173       0.00000000 </v>
   <v>       0.00000000       0.00000000      -9.35393031 </v>
  </varray>
  <energy>
   <i name="e_fr_energy">   -208.82774798 </i>
   <i name="e_wo_entrp">   -208.82774797 </i>
   <i name="e_0_energy">   -208.82774797 </i>
  </energy>
  <time name="totalsc">  153.29  153.33</time>
  <eigenvalues>
   <array>
    <dimension dim="1">band</dimension>
    <dimension dim="2">kpoint</dimension>
    <dimension dim="3">spin</dimension>
    <field>eigene</field>
    <field>occ</field>
    <set>
     <set comment="spin 1">
      <set comment="kpoint 1">
       <r>  -16.9461    1.0000 </r>
       <r>  -16.9446    1.0000 </r>
       <r>  -16.9433    1.0000 </r>
       <r>  -16.9433    1.0000 </r>
       <r>  -16.9308    1.0000 </r>
       <r>  -16.9308    1.0000 </r>
       <r>  -16.8913    1.0000 </r>
       <r>  -16.8899    1.0000 </r>
       <r>  -16.8875    1.0000 </r>
       <r>  -16.8875    1.0000 </r>
       <r>  -16.8813    1.0000 </r>
       <r>  -16.8794    1.0000 </r>
       <r>  -16.8786    1.0000 </r>
       <r>  -16.8786    1.0000 </r>
       <r>  -16.8100    1.0000 </r>
       <r>  -16.7970    1.0000 </r>
       <r>  -16.7970    1.0000 </r>
       <r>  -16.7908    1.0000 </r>
       <r>  -16.7874    1.0000 </r>
       <r>  -16.7873    1.0000 </r>
       <r>  -16.7873    1.0000 </r>
       <r>  -16.7832    1.0000 </r>
       <r>  -16.7821    1.0000 </r>
       <r>  -16.7753    1.0000 </r>
       <r>  -16.7750    1.0000 </r>
       <r>  -16.7750    1.0000 </r>
       <r>  -16.7748    1.0000 </r>
       <r>  -16.7748    1.0000 </r>
       <r>  -16.7739    1.0000 </r>
       <r>  -16.7736    1.0000 </r>
       <r>  -16.7705    1.0000 </r>
       <r>  -16.7705    1.0000 </r>
       <r>  -16.7674    1.0000 </r>
       <r>  -16.7659    1.0000 </r>
       <r>  -16.7646    1.0000 </r>
       <r>  -16.7646    1.0000 </r>
       <r>  -16.7640    1.0000 </r>
       <r>  -16.7623    1.0000 </r>
       <r>  -16.7623    1.0000 </r>
       <r>  -16.7618    1.0000 </r>
       <r>  -16.7610    1.0000 </r>
       <r>  -16.7575    1.0000 </r>
       <r>  -16.7559    1.0000 </r>
       <r>  -16.7416    1.0000 </r>
       <r>  -16.7416    1.0000 </r>
       <r>  -16.7399    1.0000 </r>
       <r>  -16.7363    1.0000 </r>
       <r>  -16.7363    1.0000 </r>
       <r>  -16.7337    1.0000 </r>
       <r>  -16.7326    1.0000 </r>
       <r>  -16.7321    1.0000 </r>
       <r>  -16.7316    1.0000 </r>
       <r>  -16.7291    1.0000 </r>
       <r>  -16.7291    1.0000 </r>
       <r>  -16.7260    1.0000 </r>
       <r>  -16.7260    1.0000 </r>
       <r>  -16.7195    1.0000 </r>
       <r>  -16.7187    1.0000 </r>
       <r>  -16.7179    1.0000 </r>
       <r>  -16.7179    1.0000 </r>
       <r>  -16.7171    1.0000 </r>
       <r>  -16.7171    1.0000 </r>
       <r>  -16.7161    1.0000 </r>
       <r>  -16.7158    1.0000 </r>
       <r>  -16.7158    1.0000 </r>
       <r>  -16.7148    1.0000 </r>
       <r>  -16.7144    1.0000 </r>
       <r>  -16.7134    1.0000 </r>
       <r>  -16.7133    1.0000 </r>
       <r>  -16.7125    1.0000 </r>
       <r>  -16.7125    1.0000 </r>
       <r>  -16.7114    1.0000 </r>
       <r>  -16.7114    1.0000 </r>
       <r>  -16.7114    1.0000 </r>
       <r>  -16.7104    1.0000 </r>
       <r>  -16.7096    1.0000 </r>
       <r>  -16.7092    1.0000 </r>
       <r>  -16.7079    1.0000 </r>
       <r>  -16.7065    1.0000 </r>
       <r>  -16.7057    1.0000 </r>
       <r>  -13.1459    1.0000 </r>
       <r>  -13.1311    1.0000 </r>
       <r>  -11.8844    1.0000 </r>
       <r>  -11.8844    1.0000 </r>
       <r>  -11.8842    1.0000 </r>
       <r>  -11.8821    1.0000 </r>
       <r>  -11.8762    1.0000 </r>
       <r>  -11.8761    1.0000 </r>
       <r>  -11.8761    1.0000 </r>
       <r>  -11.8737    1.0000 </r>
       <r>  -11.5756    1.0000 </r>
       <r>  -11.5756    1.0000 </r>
       <r>  -11.5707    1.0000 </r>
       <r>  -11.5707    1.0000 </r>
       <r>  -10.8413    1.0000 </r>
       <r>  -10.8411    1.0000 </r>
       <r>   -6.4477    1.0000 </r>
       <r>   -5.9087    1.0000 </r>
       <r>   -5.1955    1.0000 </r>
       <r>   -5.1617    1.0000 </r>
       <r>   -5.1617    1.0000 </r>
       <r>   -5.0067    1.0000 </r>
       <r>   -4.8836    1.0000 </r>
       <r>   -4.8036    1.0000 </r>
       <r>   -4.7148    1.0000 </r>
       <r>   -4.6292    1.0000 </r>
       <r>   -4.5652    1.0000 </r>
       <r>   -4.5466    1.0000 </r>
       <r>   -4.5386    1.0000 </r>
       <r>   -4.2854    1.0000 </r>
       <r>   -4.2854    1.0000 </r>
       <r>   -4.2768    1.0000 </r>
       <r>   -4.2684    1.0000 </r>
       <r>   -3.7776    1.0000 </r>
       <r>   -3.7737    1.0000 </r>
       <r>   -3.7581    1.0000 </r>
       <r>   -3.7581    1.0000 </r>
       <r>   -3.4338    1.0000 </r>
       <r>   -2.3990    1.0000 </r>
       <r>   -1.7628    1.0000 </r>
       <r>    0.7866    1.0000 </r>
       <r>    0.7866    1.0000 </r>
       <r>    0.8614    1.0000 </r>
       <r>    0.8614    1.0000 </r>
       <r>    0.9468    1.0000 </r>
       <r>    0.9468    1.0000 </r>
       <r>    1.3799    1.0000 </r>
       <r>    1.3799    1.0000 </r>
       <r>    1.3815    1.0000 </r>
       <r>    1.4012    1.0000 </r>
       <r>    1.4012    1.0000 </r>
       <r>    1.4290    1.0000 </r>
       <r>    1.5699    1.0000 </r>
       <r>    1.5699    1.0000 </r>
       <r>    1.5711    1.0000 </r>
       <r>    1.5726    1.0000 </r>
       <r>    1.6047    1.0000 </r>
       <r>    1.6349    1.0000 </r>
       <r>    2.1220    1.0000 </r>
       <r>    2.1231    1.0000 </r>
       <r>    2.1259    1.0000 </r>
       <r>    2.1259    1.0000 </r>
       <r>    2.1536    1.0000 </r>
       <r>    2.1550    1.0000 </r>
       <r>    2.1564    1.0000 </r>
       <r>    2.1564    1.0000 </r>
       <r>    2.3640    1.0000 </r>
       <r>    2.3663    1.0000 </r>
       <r>    2.3679    1.0000 </r>
       <r>    2.3679    1.0000 </r>
       <r>    2.5205    1.0000 </r>
       <r>    2.5511    1.0000 </r>
       <r>    3.0824    1.0000 </r>
       <r>    3.0824    1.0000 </r>
       <r>    3.3962    1.0000 </r>
       <r>    3.4072    1.0000 </r>
       <r>    3.6087    1.0000 </r>
       <r>    3.6087    1.0000 </r>
       <r>    3.6215    1.0000 </r>
       <r>    3.6259    1.0000 </r>
       <r>    3.6466    1.0000 </r>
       <r>    3.6466    1.0000 </r>
       <r>    3.6761    1.0000 </r>
       <r>    3.6761    1.0000 </r>
       <r>    3.8253    1.0000 </r>
       <r>    4.3386    1.0000 </r>
       <r>    4.3386    1.0000 </r>
       <r>    4.3474    1.0000 </r>
       <r>    4.3666    1.0000 </r>
       <r>    4.3668    1.0000 </r>
       <r>    4.3697    1.0000 </r>
       <r>    4.3699    1.0000 </r>
       <r>    4.9544    1.0000 </r>
       <r>    5.0450    1.0000 </r>
       <r>    5.0450    1.0000 </r>
       <r>    5.0474    1.0000 </r>
       <r>    5.0669    1.0000 </r>
       <r>    5.2644    1.0000 </r>
       <r>    5.2644    1.0000 </r>
       <r>    5.3241    1.0000 </r>
       <r>    5.3333    1.0000 </r>
       <r>    5.5129    1.0000 </r>
       <r>    5.6202    1.0000 </r>
       <r>    5.6202    1.0000 </r>
       <r>    5.7044    1.0000 </r>
       <r>    5.7070    1.0000 </r>
       <r>    5.7123    1.0000 </r>
       <r>    5.7123    1.0000 </r>
       <r>    6.1018    1.0000 </r>
       <r>    6.1018    1.0000 </r>
       <r>    6.1860    1.0000 </r>
       <r>    6.1877    1.0000 </r>
       <r>    6.5378    0.0000 </r>
       <r>    7.0130    0.0000 </r>
       <r>    7.0130    0.0000 </r>
       <r>    7.1491    0.0000 </r>
       <r>    8.5209    0.0000 </r>
       <r>    8.5279    0.0000 </r>
       <r>    8.5279    0.0000 </r>
       <r>    8.5600    0.0000 </r>
       <r>    9.1005    0.0000 </r>
       <r>    9.1005    0.0000 </r>
       <r>    9.1237    0.0000 </r>
       <r>    9.2132    0.0000 </r>
       <r>    9.2307    0.0000 </r>
       <r>    9.6522    0.0000 </r>
       <r>    9.6662    0.0000 </r>
       <r>    9.6662    0.0000 </r>
       <r>    9.6899    0.0000 </r>
       <r>    9.6899    0.0000 </r>
       <r>    9.7166    0.0000 </r>
       <r>    9.8312    0.0000 </r>
       <r>    9.8312    0.0000 </r>
       <r>   10.0235    0.0000 </r>
       <r>   10.0235    0.0000 </r>
       <r>   10.0874    0.0000 </r>
       <r>   10.0979    0.0000 </r>
       <r>   10.1639    0.0000 </r>
       <r>   10.4519    0.0000 </r>
       <r>   10.4633    0.0000 </r>
       <r>   10.5194    0.0000 </r>
       <r>   10.5194    0.0000 </r>
       <r>   10.6260    0.0000 </r>
       <r>   10.6260    0.0000 </r>
       <r>   10.7203    0.0000 </r>
       <r>   10.7203    0.0000 </r>
       <r>   10.7375    0.0000 </r>
       <r>   10.7898    0.0000 </r>
       <r>   10.8964    0.0000 </r>
       <r>   10.9962    0.0000 </r>
       <r>   11.0031    0.0000 </r>
       <r>   11.0178    0.0000 </r>
      </set>
      <set comment="kpoint 2">
       <r>  -16.9418    1.0000 </r>
       <r>  -16.9397    1.0000 </r>
       <r>  -16.9357    1.0000 </r>
       <r>  -16.9353    1.0000 </r>
       <r>  -16.9234    1.0000 </r>
       <r>  -16.9231    1.0000 </r>
       <r>  -16.9155    1.0000 </r>
       <r>  -16.9086    1.0000 </r>
       <r>  -16.8981    1.0000 </r>
       <r>  -16.8955    1.0000 </r>
       <r>  -16.8873    1.0000 </r>
       <r>  -16.8858    1.0000 </r>
       <r>  -16.8475    1.0000 </r>
       <r>  -16.8365    1.0000 </r>
       <r>  -16.8085    1.0000 </r>
       <r>  -16.8003    1.0000 </r>
       <r>  -16.7939    1.0000 </r>
       <r>  -16.7871    1.0000 </r>
       <r>  -16.7862    1.0000 </r>
       <r>  -16.7843    1.0000 </r>
       <r>  -16.7841    1.0000 </r>
       <r>  -16.7836    1.0000 </r>
       <r>  -16.7824    1.0000 </r>
       <r>  -16.7786    1.0000 </r>
       <r>  -16.7756    1.0000 </r>
       <r>  -16.7755    1.0000 </r>
       <r>  -16.7740    1.0000 </r>
       <r>  -16.7704    1.0000 </r>
       <r>  -16.7697    1.0000 </r>
       <r>  -16.7688    1.0000 </r>
       <r>  -16.7687    1.0000 </r>
       <r>  -16.7686    1.0000 </r>
       <r>  -16.7655    1.0000 </r>
       <r>  -16.7637    1.0000 </r>
       <r>  -16.7615    1.0000 </r>
       <r>  -16.7607    1.0000 </r>
       <r>  -16.7598    1.0000 </r>
       <r>  -16.7595    1.0000 </r>
       <r>  -16.7569    1.0000 </r>
       <r>  -16.7565    1.0000 </r>
       <r>  -16.7564    1.0000 </r>
       <r>  -16.7562    1.0000 </r>
       <r>  -16.7553    1.0000 </r>
       <r>  -16.7485    1.0000 </r>
       <r>  -16.7440    1.0000 </r>
       <r>  -16.7438    1.0000 </r>
       <r>  -16.7429    1.0000 </r>
       <r>  -16.7405    1.0000 </r>
       <r>  -16.7392    1.0000 </r>
       <r>  -16.7368    1.0000 </r>
       <r>  -16.7358    1.0000 </r>
       <r>  -16.7341    1.0000 </r>
       <r>  -16.7309    1.0000 </r>
       <r>  -16.7304    1.0000 </r>
       <r>  -16.7281    1.0000 </r>
       <r>  -16.7279    1.0000 </r>
       <r>  -16.7273    1.0000 </r>
       <r>  -16.7238    1.0000 </r>
       <r>  -16.7216    1.0000 </r>
       <r>  -16.7202    1.0000 </r>
       <r>  -16.7201    1.0000 </r>
       <r>  -16.7196    1.0000 </r>
       <r>  -16.7179    1.0000 </r>
       <r>  -16.7177    1.0000 </r>
       <r>  -16.7173    1.0000 </r>
       <r>  -16.7167    1.0000 </r>
       <r>  -16.7161    1.0000 </r>
       <r>  -16.7149    1.0000 </r>
       <r>  -16.7141    1.0000 </r>
       <r>  -16.7141    1.0000 </r>
       <r>  -16.7138    1.0000 </r>
       <r>  -16.7136    1.0000 </r>
       <r>  -16.7133    1.0000 </r>
       <r>  -16.7126    1.0000 </r>
       <r>  -16.7117    1.0000 </r>
       <r>  -16.7114    1.0000 </r>
       <r>  -16.7105    1.0000 </r>
       <r>  -16.7103    1.0000 </r>
       <r>  -16.7096    1.0000 </r>
       <r>  -16.7086    1.0000 </r>
       <r>  -13.0469    1.0000 </r>
       <r>  -13.0323    1.0000 </r>
       <r>  -12.3551    1.0000 </r>
       <r>  -12.3434    1.0000 </r>
       <r>  -11.8425    1.0000 </r>
       <r>  -11.8411    1.0000 </r>
       <r>  -11.8347    1.0000 </r>
       <r>  -11.8334    1.0000 </r>
       <r>  -11.6246    1.0000 </r>
       <r>  -11.6236    1.0000 </r>
       <r>  -11.6190    1.0000 </r>
       <r>  -11.6180    1.0000 </r>
       <r>  -11.4395    1.0000 </r>
       <r>  -11.4351    1.0000 </r>
       <r>  -10.9039    1.0000 </r>
       <r>  -10.9035    1.0000 </r>
       <r>   -6.3415    1.0000 </r>
       <r>   -5.8302    1.0000 </r>
       <r>   -5.5367    1.0000 </r>
       <r>   -5.3062    1.0000 </r>
       <r>   -5.1117    1.0000 </r>
       <r>   -5.0317    1.0000 </r>
       <r>   -4.8774    1.0000 </r>
       <r>   -4.7350    1.0000 </r>
       <r>   -4.6890    1.0000 </r>
       <r>   -4.6250    1.0000 </r>
       <r>   -4.5945    1.0000 </r>
       <r>   -4.4273    1.0000 </r>
       <r>   -4.4182    1.0000 </r>
       <r>   -4.3456    1.0000 </r>
       <r>   -4.3335    1.0000 </r>
       <r>   -4.2087    1.0000 </r>
       <r>   -4.1985    1.0000 </r>
       <r>   -3.8806    1.0000 </r>
       <r>   -3.8648    1.0000 </r>
       <r>   -3.6176    1.0000 </r>
       <r>   -3.5649    1.0000 </r>
       <r>   -3.2412    1.0000 </r>
       <r>   -2.4865    1.0000 </r>
       <r>   -2.0393    1.0000 </r>
       <r>    0.7850    1.0000 </r>
       <r>    0.7902    1.0000 </r>
       <r>    0.7907    1.0000 </r>
       <r>    0.8715    1.0000 </r>
       <r>    0.8840    1.0000 </r>
       <r>    0.9391    1.0000 </r>
       <r>    0.9543    1.0000 </r>
       <r>    1.0796    1.0000 </r>
       <r>    1.0828    1.0000 </r>
       <r>    1.1752    1.0000 </r>
       <r>    1.1853    1.0000 </r>
       <r>    1.2183    1.0000 </r>
       <r>    1.2214    1.0000 </r>
       <r>    1.3336    1.0000 </r>
       <r>    1.5963    1.0000 </r>
       <r>    1.6401    1.0000 </r>
       <r>    1.8190    1.0000 </r>
[...]
       <r>    5.7767    1.0000 </r>
       <r>    5.7907    1.0000 </r>
       <r>    7.7880    0.0000 </r>
       <r>    7.8133    0.0000 </r>
       <r>    7.8133    0.0000 </r>
       <r>    7.8467    0.0000 </r>
       <r>    8.5321    0.0000 </r>
       <r>    8.5619    0.0000 </r>
       <r>    8.5619    0.0000 </r>
       <r>    8.5943    0.0000 </r>
       <r>    9.0284    0.0000 </r>
       <r>    9.0386    0.0000 </r>
       <r>    9.0581    0.0000 </r>
       <r>    9.0581    0.0000 </r>
       <r>    9.3332    0.0000 </r>
       <r>    9.3475    0.0000 </r>
       <r>    9.3741    0.0000 </r>
       <r>    9.3741    0.0000 </r>
       <r>    9.5133    0.0000 </r>
       <r>    9.5133    0.0000 </r>
       <r>    9.5403    0.0000 </r>
       <r>    9.5735    0.0000 </r>
       <r>    9.5913    0.0000 </r>
       <r>    9.5913    0.0000 </r>
       <r>    9.5950    0.0000 </r>
       <r>    9.6207    0.0000 </r>
       <r>   10.3958    0.0000 </r>
       <r>   10.3958    0.0000 </r>
       <r>   10.4108    0.0000 </r>
       <r>   10.4293    0.0000 </r>
       <r>   10.4618    0.0000 </r>
       <r>   10.4624    0.0000 </r>
       <r>   10.4624    0.0000 </r>
       <r>   10.4741    0.0000 </r>
       <r>   11.0531    0.0000 </r>
       <r>   11.0621    0.0000 </r>
       <r>   11.0624    0.0000 </r>
       <r>   11.1338    0.0000 </r>
       <r>   11.1429    0.0000 </r>
       <r>   11.1461    0.0000 </r>
       <r>   11.1546    0.0000 </r>
       <r>   11.1554    0.0000 </r>
      </set>
     </set>
    </set>
   </array>
  </eigenvalues>
  <separator name="orbital magnetization" >
   <v name="MAGDIPOLOUT">      0.00000000      0.00000000      0.00000000</v>
  </separator>
  <dos>
   <i name="efermi">      6.36870877 </i>
   <total>
    <array>
     <dimension dim="1">gridpoints</dimension>
     <dimension dim="2">spin</dimension>
     <field>energy</field>
     <field>total</field>
     <field>integrated</field>
     <set>
      <set comment="spin 1">
       <r>   -18.3617     0.0000     0.0000 </r>
       <r>   -18.2579     0.0000     0.0000 </r>
       <r>   -18.1541     0.0000     0.0000 </r>
       <r>   -18.0503     0.0000     0.0000 </r>
       <r>   -17.9465     0.0000     0.0000 </r>
       <r>   -17.8427     0.0000     0.0000 </r>
       <r>   -17.7388     0.0000     0.0000 </r>
       <r>   -17.6350     0.0000     0.0000 </r>
       <r>   -17.5312     0.0000     0.0000 </r>
       <r>   -17.4274     0.0000     0.0000 </r>
       <r>   -17.3236     0.0000     0.0000 </r>
       <r>   -17.2198     0.0000     0.0000 </r>
       <r>   -17.1160     0.0000     0.0000 </r>
       <r>   -17.0121     1.4989     0.1556 </r>
       <r>   -16.9083   128.2111    13.4659 </r>
       <r>   -16.8045   252.4252    39.6717 </r>
       <r>   -16.7007   960.7303   139.4106 </r>
       <r>   -16.5969   198.1538   159.9821 </r>
       <r>   -16.4931     0.1727   160.0000 </r>
       <r>   -16.3892     0.0000   160.0000 </r>
       <r>   -16.2854     0.0000   160.0000 </r>
       <r>   -16.1816     0.0000   160.0000 </r>
       <r>   -16.0778     0.0000   160.0000 </r>
       <r>   -15.9740     0.0000   160.0000 </r>
       <r>   -15.8702     0.0000   160.0000 </r>
       <r>   -15.7663     0.0000   160.0000 </r>
       <r>   -15.6625     0.0000   160.0000 </r>
       <r>   -15.5587     0.0000   160.0000 </r>
       <r>   -15.4549     0.0000   160.0000 </r>
       <r>   -15.3511     0.0000   160.0000 </r>
       <r>   -15.2473     0.0000   160.0000 </r>
       <r>   -15.1435     0.0000   160.0000 </r>
       <r>   -15.0396     0.0000   160.0000 </r>
       <r>   -14.9358     0.0000   160.0000 </r>
       <r>   -14.8320     0.0000   160.0000 </r>
       <r>   -14.7282     0.0000   160.0000 </r>
       <r>   -14.6244     0.0000   160.0000 </r>
       <r>   -14.5206     0.0000   160.0000 </r>
       <r>   -14.4167     0.0000   160.0000 </r>
       <r>   -14.3129     0.0000   160.0000 </r>
       <r>   -14.2091     0.0000   160.0000 </r>
       <r>   -14.1053     0.0000   160.0000 </r>
       <r>   -14.0015     0.0000   160.0000 </r>
       <r>   -13.8977     0.0000   160.0000 </r>
       <r>   -13.7939     0.0000   160.0000 </r>
       <r>   -13.6900     0.0000   160.0000 </r>
       <r>   -13.5862     0.0000   160.0000 </r>
       <r>   -13.4824     0.0000   160.0000 </r>
       <r>   -13.3786     0.0000   160.0000 </r>
       <r>   -13.2748     0.0002   160.0000 </r>
       <r>   -13.1710     0.4389   160.0456 </r>
       <r>   -13.0671     4.0392   160.4649 </r>
       <r>   -12.9633    10.2683   161.5309 </r>
       <r>   -12.8595     6.8752   162.2447 </r>
       <r>   -12.7557     5.6194   162.8281 </r>
       <r>   -12.6519    18.2946   164.7273 </r>
       <r>   -12.5481     5.0469   165.2513 </r>
       <r>   -12.4442     4.2462   165.6921 </r>
       <r>   -12.3404    12.0675   166.9449 </r>
       <r>   -12.2366    20.2618   169.0484 </r>
       <r>   -12.1328     5.3282   169.6015 </r>
       <r>   -12.0290    15.3460   171.1947 </r>
       <r>   -11.9252     1.8291   171.3846 </r>
       <r>   -11.8214    28.9259   174.3876 </r>
       <r>   -11.7175    21.0478   176.5727 </r>
       <r>   -11.6137    18.3891   178.4817 </r>
       <r>   -11.5099    14.0943   179.9449 </r>
       <r>   -11.4061    42.4187   184.3487 </r>
       <r>   -11.3023    13.6109   185.7617 </r>
       <r>   -11.1985     7.4892   186.5392 </r>
       <r>   -11.0946    23.1775   188.9454 </r>
       <r>   -10.9908     9.3926   189.9205 </r>
       <r>   -10.8870    14.5571   191.4317 </r>
       <r>   -10.7832     5.3489   191.9871 </r>
       <r>   -10.6794     0.1247   192.0000 </r>
       <r>   -10.5756     0.0000   192.0000 </r>
       <r>   -10.4717     0.0000   192.0000 </r>
       <r>   -10.3679     0.0000   192.0000 </r>
       <r>   -10.2641     0.0000   192.0000 </r>
       <r>   -10.1603     0.0000   192.0000 </r>
       <r>   -10.0565     0.0000   192.0000 </r>
       <r>    -9.9527     0.0000   192.0000 </r>
       <r>    -9.8489     0.0000   192.0000 </r>
       <r>    -9.7450     0.0000   192.0000 </r>
       <r>    -9.6412     0.0000   192.0000 </r>
       <r>    -9.5374     0.0000   192.0000 </r>
       <r>    -9.4336     0.0000   192.0000 </r>
       <r>    -9.3298     0.0000   192.0000 </r>
       <r>    -9.2260     0.0000   192.0000 </r>
       <r>    -9.1221     0.0000   192.0000 </r>
       <r>    -9.0183     0.0000   192.0000 </r>
       <r>    -8.9145     0.0000   192.0000 </r>
       <r>    -8.8107     0.0000   192.0000 </r>
       <r>    -8.7069     0.0000   192.0000 </r>
       <r>    -8.6031     0.0000   192.0000 </r>
       <r>    -8.4992     0.0000   192.0000 </r>
       <r>    -8.3954     0.0000   192.0000 </r>
       <r>    -8.2916     0.0000   192.0000 </r>
       <r>    -8.1878     0.0000   192.0000 </r>
       <r>    -8.0840     0.0000   192.0000 </r>
       <r>    -7.9802     0.0000   192.0000 </r>
       <r>    -7.8764     0.0000   192.0000 </r>
       <r>    -7.7725     0.0000   192.0000 </r>
       <r>    -7.6687     0.0000   192.0000 </r>
       <r>    -7.5649     0.0000   192.0000 </r>
       <r>    -7.4611     0.0000   192.0000 </r>
       <r>    -7.3573     0.0000   192.0000 </r>
       <r>    -7.2535     0.0000   192.0000 </r>
       <r>    -7.1496     0.0000   192.0000 </r>
       <r>    -7.0458     0.0000   192.0000 </r>
       <r>    -6.9420     0.0000   192.0000 </r>
       <r>    -6.8382     0.0000   192.0000 </r>
       <r>    -6.7344     0.0000   192.0000 </r>
       <r>    -6.6306     0.0000   192.0000 </r>
       <r>    -6.5267     0.0051   192.0005 </r>
       <r>    -6.4229     0.3296   192.0348 </r>
       <r>    -6.3191     1.9619   192.2384 </r>
       <r>    -6.2153     4.3862   192.6938 </r>
       <r>    -6.1115     3.9006   193.0987 </r>
       <r>    -6.0077     3.8191   193.4952 </r>
       <r>    -5.9039    10.5995   194.5956 </r>
       <r>    -5.8000     9.2717   195.5581 </r>
       <r>    -5.6962     6.3919   196.2217 </r>
       <r>    -5.5924     9.9656   197.2563 </r>
       <r>    -5.4886    10.2809   198.3236 </r>
       <r>    -5.3848    12.2554   199.5959 </r>
       <r>    -5.2810    11.7531   200.8161 </r>
       <r>    -5.1771    16.1607   202.4938 </r>
       <r>    -5.0733    11.1495   203.6513 </r>
       <r>    -4.9695    18.5740   205.5796 </r>
       <r>    -4.8657    10.8138   206.7022 </r>
       <r>    -4.7619     7.0541   207.4345 </r>
       <r>    -4.6581    15.8795   209.0831 </r>
       <r>    -4.5542    13.5784   210.4927 </r>
       <r>    -4.4504    29.7668   213.5830 </r>
       <r>    -4.3466    31.4213   216.8450 </r>
       <r>    -4.2428    43.3127   221.3416 </r>
       <r>    -4.1390    24.6150   223.8970 </r>
       <r>    -4.0352    13.7432   225.3237 </r>
       <r>    -3.9314     9.0839   226.2668 </r>
       <r>    -3.8275    21.2756   228.4755 </r>
       <r>    -3.7237    15.2894   230.0628 </r>
       <r>    -3.6199    10.5502   231.1581 </r>
       <r>    -3.5161     8.2839   232.0181 </r>
       <r>    -3.4123     7.6193   232.8091 </r>
       <r>    -3.3085     9.3508   233.7799 </r>
       <r>    -3.2046     8.5985   234.6725 </r>
       <r>    -3.1008     0.7461   234.7500 </r>
       <r>    -2.9970     0.0417   234.7543 </r>
       <r>    -2.8932     9.9484   235.7871 </r>
       <r>    -2.7894    11.2758   236.9577 </r>
       <r>    -2.6856     7.4263   237.7287 </r>
       <r>    -2.5817     1.0842   237.8413 </r>
       <r>    -2.4779     3.5070   238.2053 </r>
       <r>    -2.3741     3.1228   238.5295 </r>
       <r>    -2.2703     6.3177   239.1854 </r>
       <r>    -2.1665     1.7662   239.3688 </r>
       <r>    -2.0627     3.5252   239.7347 </r>
       <r>    -1.9589     1.3393   239.8738 </r>
       <r>    -1.8550     0.5800   239.9340 </r>
       <r>    -1.7512     0.4863   239.9845 </r>
       <r>    -1.6474     0.1493   240.0000 </r>
       <r>    -1.5436     0.0002   240.0000 </r>
       <r>    -1.4398     0.0000   240.0000 </r>
       <r>    -1.3360     0.0000   240.0000 </r>
       <r>    -1.2321     0.0000   240.0000 </r>
       <r>    -1.1283     0.0000   240.0000 </r>
       <r>    -1.0245     0.0000   240.0000 </r>
       <r>    -0.9207     0.0000   240.0000 </r>
       <r>    -0.8169     0.0000   240.0000 </r>
       <r>    -0.7131     0.0000   240.0000 </r>
       <r>    -0.6093     0.0000   240.0000 </r>
       <r>    -0.5054     0.0000   240.0000 </r>
       <r>    -0.4016     0.0000   240.0000 </r>
       <r>    -0.2978     0.0000   240.0000 </r>
       <r>    -0.1940     0.0000   240.0000 </r>
       <r>    -0.0902     0.0000   240.0000 </r>
       <r>     0.0136     0.0000   240.0000 </r>
       <r>     0.1175     0.0000   240.0000 </r>
       <r>     0.2213     0.0010   240.0001 </r>
       <r>     0.3251     0.6174   240.0642 </r>
       <r>     0.4289     3.7701   240.4556 </r>
       <r>     0.5327    13.3535   241.8419 </r>
       <r>     0.6365    31.3305   245.0945 </r>
       <r>     0.7404    28.6821   248.0721 </r>
       <r>     0.8442    36.2103   251.8313 </r>
       <r>     0.9480    23.7954   254.3017 </r>
       <r>     1.0518    14.9980   255.8587 </r>
       <r>     1.1556    17.9343   257.7206 </r>
       <r>     1.2594    35.8302   261.4403 </r>
       <r>     1.3632    16.1562   263.1176 </r>
       <r>     1.4671    11.3116   264.2919 </r>
       <r>     1.5709    14.3599   265.7827 </r>
       <r>     1.6747    38.7337   269.8038 </r>
       <r>     1.7785     8.2204   270.6573 </r>
       <r>     1.8823    17.5518   272.4794 </r>
       <r>     1.9861    20.3292   274.5899 </r>
       <r>     2.0900    27.0637   277.3995 </r>
       <r>     2.1938    38.0145   281.3460 </r>
       <r>     2.2976    28.6435   284.3197 </r>
       <r>     2.4014    27.0551   287.1284 </r>
       <r>     2.5052    19.7838   289.1823 </r>
       <r>     2.6090    26.2353   291.9059 </r>
       <r>     2.7129    32.6710   295.2977 </r>
       <r>     2.8167    35.0705   298.9386 </r>
       <r>     2.9205    32.2305   302.2846 </r>
       <r>     3.0243    16.1772   303.9641 </r>
       <r>     3.1281    26.0430   306.6677 </r>
       <r>     3.2319    21.4053   308.8899 </r>
       <r>     3.3357    15.3680   310.4854 </r>
       <r>     3.4396    18.2100   312.3759 </r>
       <r>     3.5434    29.3917   315.4272 </r>
       <r>     3.6472    50.8191   320.7030 </r>
       <r>     3.7510    28.2701   323.6379 </r>
       <r>     3.8548    19.2991   325.6414 </r>
       <r>     3.9586    26.8579   328.4297 </r>
       <r>     4.0625    37.0069   332.2716 </r>
       <r>     4.1663    17.9559   334.1357 </r>
       <r>     4.2701    19.1327   336.1220 </r>
       <r>     4.3739    33.2493   339.5738 </r>
       <r>     4.4777    17.1768   341.3570 </r>
       <r>     4.5815    14.7764   342.8910 </r>
       <r>     4.6854    15.8810   344.5397 </r>
       <r>     4.7892    17.7063   346.3779 </r>
       <r>     4.8930     9.5299   347.3673 </r>
       <r>     4.9968    24.9198   349.9543 </r>
       <r>     5.1006    51.9245   355.3449 </r>
       <r>     5.2044    48.6235   360.3928 </r>
       <r>     5.3082    57.2123   366.3324 </r>
       <r>     5.4121    29.4948   369.3944 </r>
       <r>     5.5159    27.7497   372.2752 </r>
       <r>     5.6197    21.8634   374.5450 </r>
       <r>     5.7235    26.1827   377.2632 </r>
       <r>     5.8273    25.8580   379.9476 </r>
       <r>     5.9311    22.8863   382.3236 </r>
       <r>     6.0350     7.3514   383.0868 </r>
       <r>     6.1388     6.0786   383.7178 </r>
       <r>     6.2426     2.5761   383.9853 </r>
       <r>     6.3464     0.1417   384.0000 </r>
       <r>     6.4502     0.0027   384.0003 </r>
       <r>     6.5540     0.2690   384.0282 </r>
       <r>     6.6579     0.1322   384.0419 </r>
       <r>     6.7617     0.4696   384.0907 </r>
       <r>     6.8655     0.3299   384.1249 </r>
       <r>     6.9693     0.0885   384.1341 </r>
       <r>     7.0731     1.0704   384.2453 </r>
       <r>     7.1769     0.7602   384.3242 </r>
       <r>     7.2807     0.2140   384.3464 </r>
       <r>     7.3846     1.6305   384.5157 </r>
       <r>     7.4884     4.3906   384.9715 </r>
       <r>     7.5922     2.8430   385.2666 </r>
       <r>     7.6960     6.5823   385.9500 </r>
       <r>     7.7998     4.3292   386.3994 </r>
       <r>     7.9036    10.5578   387.4955 </r>
       <r>     8.0075     8.4622   388.3740 </r>
       <r>     8.1113     9.3400   389.3436 </r>
       <r>     8.2151     9.4940   390.3292 </r>
       <r>     8.3189     7.6552   391.1240 </r>
       <r>     8.4227     7.5918   391.9121 </r>
       <r>     8.5265    19.9734   393.9857 </r>
       <r>     8.6304    30.9591   397.1997 </r>
       <r>     8.7342    26.3388   399.9341 </r>
       <r>     8.8380    17.4465   401.7453 </r>
       <r>     8.9418    23.8917   404.2256 </r>
       <r>     9.0456    30.3184   407.3732 </r>
       <r>     9.1494    16.3860   409.0743 </r>
       <r>     9.2532    20.8615   411.2400 </r>
       <r>     9.3571    23.7291   413.7035 </r>
       <r>     9.4609    25.5332   416.3542 </r>
       <r>     9.5647    31.6322   419.6382 </r>
       <r>     9.6685    17.6882   421.4745 </r>
       <r>     9.7723    29.6253   424.5501 </r>
       <r>     9.8761    28.1878   427.4764 </r>
       <r>     9.9800    31.7055   430.7679 </r>
       <r>    10.0838    27.1360   433.5851 </r>
       <r>    10.1876    19.5360   435.6132 </r>
       <r>    10.2914    25.1060   438.2196 </r>
       <r>    10.3952    15.8174   439.8617 </r>
       <r>    10.4990    19.3575   441.8713 </r>
       <r>    10.6029    17.6936   443.7082 </r>
       <r>    10.7067    21.4017   445.9300 </r>
       <r>    10.8105    24.3190   448.4547 </r>
       <r>    10.9143    43.2421   452.9439 </r>
       <r>    11.0181    34.1756   456.4919 </r>
       <r>    11.1219    41.2318   460.7724 </r>
       <r>    11.2257    22.4646   463.1046 </r>
       <r>    11.3296     6.4383   463.7730 </r>
       <r>    11.4334     2.1597   463.9972 </r>
       <r>    11.5372     0.0270   464.0000 </r>
       <r>    11.6410     0.0000   464.0000 </r>
       <r>    11.7448     0.0000   464.0000 </r>
       <r>    11.8486     0.0000   464.0000 </r>
       <r>    11.9525     0.0000   464.0000 </r>
       <r>    12.0563     0.0000   464.0000 </r>
       <r>    12.1601     0.0000   464.0000 </r>
       <r>    12.2639     0.0000   464.0000 </r>
       <r>    12.3677     0.0000   464.0000 </r>
       <r>    12.4715     0.0000   464.0000 </r>
       <r>    12.5753     0.0000   464.0000 </r>
       <r>    12.6792     0.0000   464.0000 </r>
       <r>    12.7830     0.0000   464.0000 </r>
      </set>
     </set>
    </array>
   </total>
  </dos>
 </calculation>
 <structure name="finalpos" >
  <crystal>
   <varray name="basis" >
    <v>       7.87935984       0.00000000       0.00000000 </v>
    <v>       0.00000000       7.87935984       0.00000000 </v>
    <v>       0.00000000       0.00000000      12.43456532 </v>
   </varray>
   <i name="volume">    771.99142703 </i>
   <varray name="rec_basis" >
    <v>       0.12691386       0.00000000       0.00000000 </v>
    <v>       0.00000000       0.12691386       0.00000000 </v>
    <v>       0.00000000       0.00000000       0.08042099 </v>
   </varray>
  </crystal>
  <varray name="positions" >
   <v>       0.24894076       0.24894076       0.85355549 </v>
   <v>       0.75105924       0.24894076       0.85355549 </v>
   <v>       0.24894076       0.75105924       0.85355549 </v>
   <v>       0.75105924       0.75105924       0.85355549 </v>
   <v>       1.00000000       1.00000000       0.64744753 </v>
   <v>       0.50000000       1.00000000       0.64824476 </v>
   <v>       1.00000000       0.50000000       0.64824476 </v>
   <v>       0.50000000       0.50000000       0.64914790 </v>
   <v>       1.00000000       0.00000000       0.35255247 </v>
   <v>       0.50000000       0.00000000       0.35175524 </v>
   <v>       1.00000000       0.50000000       0.35175524 </v>
   <v>       0.50000000       0.50000000       0.35085210 </v>
   <v>       0.24894076       0.24894076       0.14644451 </v>
   <v>       0.75105924       0.24894076       0.14644451 </v>
   <v>       0.24894076       0.75105924       0.14644451 </v>
   <v>       0.75105924       0.75105924       0.14644451 </v>
   <v>       0.50000000       1.00000000       0.00000000 </v>
   <v>       1.00000000       0.50000000       0.00000000 </v>
   <v>       0.50000000       0.50000000       0.00000000 </v>
   <v>       0.25004865       0.25004865       0.50000000 </v>
   <v>       0.74995135       0.25004865       0.50000000 </v>
   <v>       0.25004865       0.74995135       0.50000000 </v>
   <v>       0.74995135       0.74995135       0.50000000 </v>
   <v>       1.00000000       0.24956547       0.75051028 </v>
   <v>       0.50000000       0.24970123       0.75135973 </v>
   <v>       1.00000000       0.75043453       0.75051028 </v>
   <v>       0.50000000       0.75029877       0.75135973 </v>
   <v>       0.24956547       1.00000000       0.75051028 </v>
   <v>       0.75043453       0.00000000       0.75051028 </v>
   <v>       0.24970123       0.50000000       0.75135973 </v>
   <v>       0.75029877       0.50000000       0.75135973 </v>
   <v>       0.24956547       0.00000000       0.24948972 </v>
   <v>       0.75043453       1.00000000       0.24948972 </v>
   <v>       0.24970123       0.50000000       0.24864027 </v>
   <v>       0.75029877       0.50000000       0.24864027 </v>
   <v>       1.00000000       0.24956547       0.24948972 </v>
   <v>       0.50000000       0.24970123       0.24864027 </v>
   <v>       1.00000000       0.75043453       0.24948972 </v>
   <v>       0.50000000       0.75029877       0.24864027 </v>
   <v>       1.00000000       1.00000000       0.00000000 </v>
  </varray>
 </structure>
</modeling>
