unknown system                          
           1
     7.879360    0.000000    0.000000
     0.000000    7.879360    0.000000
     0.000000    0.000000   12.434565
   Bi   Se   O    S 
    16     7    16     1
Direct configuration=     1
   0.24894077  0.24894077  0.85355549
   0.75105923  0.24894077  0.85355549
   0.24894077  0.75105923  0.85355549
   0.75105923  0.75105923  0.85355549
   0.00000000  0.00000000  0.64744756
   0.50000000  0.00000000  0.64824476
   0.00000000  0.50000000  0.64824476
   0.50000000  0.50000000  0.64914787
   0.00000000  0.00000000  0.35255244
   0.50000000  0.00000000  0.35175524
   0.00000000  0.50000000  0.35175524
   0.50000000  0.50000000  0.35085213
   0.24894077  0.24894077  0.14644451
   0.75105923  0.24894077  0.14644451
   0.24894077  0.75105923  0.14644451
   0.75105923  0.75105923  0.14644451
   0.50000000  0.00000000  0.00000000
   0.00000000  0.50000000  0.00000000
   0.50000000  0.50000000  0.00000000
   0.25004869  0.25004869  0.50000000
   0.74995131  0.25004869  0.50000000
   0.25004869  0.74995131  0.50000000
   0.74995131  0.74995131  0.50000000
   0.00000000  0.24956546  0.75051027
   0.50000000  0.24970122  0.75135973
   0.00000000  0.75043454  0.75051027
   0.50000000  0.75029878  0.75135973
   0.24956546  0.00000000  0.75051027
   0.75043454  0.00000000  0.75051027
   0.24970122  0.50000000  0.75135973
   0.75029878  0.50000000  0.75135973
   0.24956546  0.00000000  0.24948973
   0.75043454  0.00000000  0.24948973
   0.24970122  0.50000000  0.24864027
   0.75029878  0.50000000  0.24864027
   0.00000000  0.24956546  0.24948973
   0.50000000  0.24970122  0.24864027
   0.00000000  0.75043454  0.24948973
   0.50000000  0.75029878  0.24864027
   0.00000000  0.00000000  0.00000000
Direct configuration=     2
   0.24894076  0.24894076  0.85355549
   0.75105924  0.24894076  0.85355549
   0.24894076  0.75105924  0.85355549
   0.75105924  0.75105924  0.85355549
   1.00000000  1.00000000  0.64744753
   0.50000000  1.00000000  0.64824476
   1.00000000  0.50000000  0.64824476
   0.50000000  0.50000000  0.64914791
   1.00000000  0.00000000  0.35255247
   0.50000000  0.00000000  0.35175524
   1.00000000  0.50000000  0.35175524
   0.50000000  0.50000000  0.35085209
   0.24894076  0.24894076  0.14644451
   0.75105924  0.24894076  0.14644451
   0.24894076  0.75105924  0.14644451
   0.75105924  0.75105924  0.14644451
   0.50000000  1.00000000  0.00000000
   1.00000000  0.50000000  0.00000000
   0.50000000  0.50000000  0.00000000
   0.25004865  0.25004865  0.50000000
   0.74995135  0.25004865  0.50000000
   0.25004865  0.74995135  0.50000000
   0.74995135  0.74995135  0.50000000
   1.00000000  0.24956547  0.75051028
   0.50000000  0.24970123  0.75135973
   1.00000000  0.75043453  0.75051028
   0.50000000  0.75029877  0.75135973
   0.24956547  1.00000000  0.75051028
   0.75043453  0.00000000  0.75051028
   0.24970123  0.50000000  0.75135973
   0.75029877  0.50000000  0.75135973
   0.24956547  0.00000000  0.24948972
   0.75043453  1.00000000  0.24948972
   0.24970123  0.50000000  0.24864027
   0.75029877  0.50000000  0.24864027
   1.00000000  0.24956547  0.24948972
   0.50000000  0.24970123  0.24864027
   1.00000000  0.75043453  0.24948972
   0.50000000  0.75029877  0.24864027
   1.00000000  1.00000000  0.00000000
Direct configuration=     3
   0.24894077  0.24894077  0.85355549
   0.75105923  0.24894077  0.85355549
   0.24894077  0.75105923  0.85355549
   0.75105923  0.75105923  0.85355549
   0.00000000  0.00000000  0.64744754
   0.50000000  0.00000000  0.64824476
   0.00000000  0.50000000  0.64824476
   0.50000000  0.50000000  0.64914789
   0.00000000  0.00000000  0.35255246
   0.50000000  0.00000000  0.35175524
   0.00000000  0.50000000  0.35175524
   0.50000000  0.50000000  0.35085211
   0.24894077  0.24894077  0.14644451
   0.75105923  0.24894077  0.14644451
   0.24894077  0.75105923  0.14644451
   0.75105923  0.75105923  0.14644451
   0.50000000  0.00000000  0.00000000
   0.00000000  0.50000000  0.00000000
   0.50000000  0.50000000  0.00000000
   0.25004867  0.25004867  0.50000000
   0.74995133  0.25004867  0.50000000
   0.25004867  0.74995133  0.50000000
   0.74995133  0.74995133  0.50000000
   0.00000000  0.24956546  0.75051028
   0.50000000  0.24970123  0.75135973
   0.00000000  0.75043454  0.75051028
   0.50000000  0.75029877  0.75135973
   0.24956546  0.00000000  0.75051028
   0.75043454  0.00000000  0.75051028
   0.24970123  0.50000000  0.75135973
   0.75029877  0.50000000  0.75135973
   0.24956546  0.00000000  0.24948972
   0.75043454  0.00000000  0.24948972
   0.24970123  0.50000000  0.24864027
   0.75029877  0.50000000  0.24864027
   0.00000000  0.24956546  0.24948972
   0.50000000  0.24970123  0.24864027
   0.00000000  0.75043454  0.24948972
   0.50000000  0.75029877  0.24864027
   0.00000000  0.00000000  0.00000000
Direct configuration=     4
   0.24894076  0.24894076  0.85355549
   0.75105924  0.24894076  0.85355549
   0.24894076  0.75105924  0.85355549
   0.75105924  0.75105924  0.85355549
   1.00000000  1.00000000  0.64744753
   0.50000000  1.00000000  0.64824476
   1.00000000  0.50000000  0.64824476
   0.50000000  0.50000000  0.64914790
   1.00000000  0.00000000  0.35255247
   0.50000000  0.00000000  0.35175524
   1.00000000  0.50000000  0.35175524
   0.50000000  0.50000000  0.35085210
   0.24894076  0.24894076  0.14644451
   0.75105924  0.24894076  0.14644451
   0.24894076  0.75105924  0.14644451
   0.75105924  0.75105924  0.14644451
   0.50000000  1.00000000  0.00000000
   1.00000000  0.50000000  0.00000000
   0.50000000  0.50000000  0.00000000
   0.25004865  0.25004865  0.50000000
   0.74995135  0.25004865  0.50000000
   0.25004865  0.74995135  0.50000000
   0.74995135  0.74995135  0.50000000
   1.00000000  0.24956547  0.75051028
   0.50000000  0.24970123  0.75135973
   1.00000000  0.75043453  0.75051028
   0.50000000  0.75029877  0.75135973
   0.24956547  1.00000000  0.75051028
   0.75043453  0.00000000  0.75051028
   0.24970123  0.50000000  0.75135973
   0.75029877  0.50000000  0.75135973
   0.24956547  0.00000000  0.24948972
   0.75043453  1.00000000  0.24948972
   0.24970123  0.50000000  0.24864027
   0.75029877  0.50000000  0.24864027
   1.00000000  0.24956547  0.24948972
   0.50000000  0.24970123  0.24864027
   1.00000000  0.75043453  0.24948972
   0.50000000  0.75029877  0.24864027
   1.00000000  1.00000000  0.00000000
