  40  40   0   0
  0.2108023E+02  0.8114565E-09  0.8114565E-09  0.1280575E-08  0.5000000E-15
  1.000000000000000E-004
  CAR 
 unknown system                          
     11.27330108    -19.38186051  301      5.44934343      1.00000000
    -19.382  0.0000E+00  0.0000E+00
    -19.280  0.0000E+00  0.0000E+00
    -19.177  0.0000E+00  0.0000E+00
    -19.075  0.0000E+00  0.0000E+00
    -18.973  0.0000E+00  0.0000E+00
    -18.871  0.0000E+00  0.0000E+00
    -18.769  0.0000E+00  0.0000E+00
    -18.667  0.0000E+00  0.0000E+00
    -18.564  0.0000E+00  0.0000E+00
    -18.462  0.0000E+00  0.0000E+00
    -18.360  0.0000E+00  0.0000E+00
    -18.258  0.2118E-14  0.2165E-15
    -18.156  0.3417E-06  0.3492E-07
    -18.053  0.2180E-01  0.2228E-02
    -17.951  0.1481E+01  0.1536E+00
    -17.849  0.5827E+01  0.7490E+00
    -17.747  0.8071E+01  0.1574E+01
    -17.645  0.2566E+00  0.1600E+01
    -17.543  0.1770E-04  0.1600E+01
    -17.440  0.6543E-12  0.1600E+01
    -17.338  0.0000E+00  0.1600E+01
    -17.236  0.0000E+00  0.1600E+01
    -17.134  0.0000E+00  0.1600E+01
    -17.032  0.0000E+00  0.1600E+01
    -16.929  0.0000E+00  0.1600E+01
    -16.827  0.0000E+00  0.1600E+01
    -16.725  0.0000E+00  0.1600E+01
    -16.623  0.0000E+00  0.1600E+01
    -16.521  0.0000E+00  0.1600E+01
    -16.419  0.0000E+00  0.1600E+01
    -16.316  0.0000E+00  0.1600E+01
    -16.214  0.0000E+00  0.1600E+01
    -16.112  0.0000E+00  0.1600E+01
    -16.010  0.0000E+00  0.1600E+01
    -15.908  0.0000E+00  0.1600E+01
    -15.805  0.0000E+00  0.1600E+01
    -15.703  0.0000E+00  0.1600E+01
    -15.601  0.0000E+00  0.1600E+01
    -15.499  0.0000E+00  0.1600E+01
    -15.397  0.0000E+00  0.1600E+01
    -15.295  0.0000E+00  0.1600E+01
    -15.192  0.0000E+00  0.1600E+01
    -15.090  0.0000E+00  0.1600E+01
    -14.988  0.0000E+00  0.1600E+01
    -14.886  0.0000E+00  0.1600E+01
    -14.784  0.0000E+00  0.1600E+01
    -14.681  0.0000E+00  0.1600E+01
    -14.579  0.0000E+00  0.1600E+01
    -14.477  0.0000E+00  0.1600E+01
    -14.375  0.0000E+00  0.1600E+01
    -14.273  0.0000E+00  0.1600E+01
    -14.170  0.0000E+00  0.1600E+01
    -14.068  0.0000E+00  0.1600E+01
    -13.966  0.1150E-09  0.1600E+01
    -13.864  0.5170E-04  0.1600E+01
    -13.762  0.1329E-01  0.1601E+01
    -13.660  0.8375E-01  0.1610E+01
    -13.557  0.1105E+00  0.1621E+01
    -13.455  0.4890E-01  0.1626E+01
    -13.353  0.1866E+00  0.1645E+01
    -13.251  0.7217E-01  0.1653E+01
    -13.149  0.6750E-01  0.1660E+01
    -13.046  0.1791E+00  0.1678E+01
    -12.944  0.1484E+00  0.1693E+01
    -12.842  0.1563E+00  0.1709E+01
    -12.740  0.4401E-01  0.1713E+01
    -12.638  0.2913E+00  0.1743E+01
    -12.536  0.2559E+00  0.1769E+01
    -12.433  0.2309E+00  0.1793E+01
    -12.331  0.2190E+00  0.1815E+01
    -12.229  0.4038E+00  0.1857E+01
    -12.127  0.6225E-01  0.1863E+01
    -12.025  0.2284E+00  0.1886E+01
    -11.922  0.1350E+00  0.1900E+01
    -11.820  0.1570E+00  0.1916E+01
    -11.718  0.3711E-01  0.1920E+01
    -11.616  0.2986E-03  0.1920E+01
    -11.514  0.3180E-08  0.1920E+01
    -11.412  0.1086E-16  0.1920E+01
    -11.309  0.0000E+00  0.1920E+01
    -11.207  0.0000E+00  0.1920E+01
    -11.105  0.0000E+00  0.1920E+01
    -11.003  0.0000E+00  0.1920E+01
    -10.901  0.0000E+00  0.1920E+01
    -10.798  0.0000E+00  0.1920E+01
    -10.696  0.0000E+00  0.1920E+01
    -10.594  0.0000E+00  0.1920E+01
    -10.492  0.0000E+00  0.1920E+01
    -10.390  0.0000E+00  0.1920E+01
    -10.287  0.0000E+00  0.1920E+01
    -10.185  0.0000E+00  0.1920E+01
    -10.083  0.0000E+00  0.1920E+01
     -9.981  0.0000E+00  0.1920E+01
     -9.879  0.0000E+00  0.1920E+01
     -9.777  0.0000E+00  0.1920E+01
     -9.674  0.0000E+00  0.1920E+01
     -9.572  0.0000E+00  0.1920E+01
     -9.470  0.0000E+00  0.1920E+01
     -9.368  0.0000E+00  0.1920E+01
     -9.266  0.0000E+00  0.1920E+01
     -9.163  0.0000E+00  0.1920E+01
     -9.061  0.0000E+00  0.1920E+01
     -8.959  0.0000E+00  0.1920E+01
     -8.857  0.0000E+00  0.1920E+01
     -8.755  0.0000E+00  0.1920E+01
     -8.653  0.0000E+00  0.1920E+01
     -8.550  0.0000E+00  0.1920E+01
     -8.448  0.0000E+00  0.1920E+01
     -8.346  0.0000E+00  0.1920E+01
     -8.244  0.0000E+00  0.1920E+01
     -8.142  0.0000E+00  0.1920E+01
     -8.039  0.0000E+00  0.1920E+01
     -7.937  0.0000E+00  0.1920E+01
     -7.835  0.0000E+00  0.1920E+01
     -7.733  0.0000E+00  0.1920E+01
     -7.631  0.0000E+00  0.1920E+01
     -7.529  0.0000E+00  0.1920E+01
     -7.426  0.0000E+00  0.1920E+01
     -7.324  0.0000E+00  0.1920E+01
     -7.222  0.0000E+00  0.1920E+01
     -7.120  0.7356E-16  0.1920E+01
     -7.018  0.5729E-08  0.1920E+01
     -6.915  0.1488E-03  0.1920E+01
     -6.813  0.5711E-02  0.1921E+01
     -6.711  0.3311E-01  0.1924E+01
     -6.609  0.5476E-01  0.1930E+01
     -6.507  0.4425E-01  0.1934E+01
     -6.405  0.1302E+00  0.1947E+01
     -6.302  0.8906E-01  0.1957E+01
     -6.200  0.1071E+00  0.1967E+01
     -6.098  0.1133E+00  0.1979E+01
     -5.996  0.1559E+00  0.1995E+01
     -5.894  0.1756E+00  0.2013E+01
     -5.791  0.1693E+00  0.2030E+01
     -5.689  0.1981E+00  0.2050E+01
     -5.587  0.2461E+00  0.2076E+01
     -5.485  0.1479E+00  0.2091E+01
     -5.383  0.3287E+00  0.2124E+01
     -5.280  0.3278E+00  0.2158E+01
     -5.178  0.4203E+00  0.2201E+01
     -5.076  0.4124E+00  0.2243E+01
     -4.974  0.9635E-01  0.2253E+01
     -4.872  0.1955E+00  0.2273E+01
     -4.770  0.2458E+00  0.2298E+01
     -4.667  0.7552E-01  0.2306E+01
     -4.565  0.1043E+00  0.2316E+01
     -4.463  0.1368E+00  0.2330E+01
     -4.361  0.1125E+00  0.2342E+01
     -4.259  0.5689E-01  0.2347E+01
     -4.156  0.3833E-03  0.2348E+01
     -4.054  0.2629E-01  0.2350E+01
     -3.952  0.1567E+00  0.2366E+01
     -3.850  0.8271E-01  0.2375E+01
     -3.748  0.3317E-01  0.2378E+01
     -3.646  0.3226E-01  0.2381E+01
     -3.543  0.4167E-01  0.2386E+01
     -3.441  0.6623E-01  0.2392E+01
     -3.339  0.2816E-01  0.2395E+01
     -3.237  0.3169E-01  0.2398E+01
     -3.135  0.7215E-02  0.2399E+01
     -3.032  0.6527E-02  0.2400E+01
     -2.930  0.1123E-02  0.2400E+01
     -2.828  0.9723E-06  0.2400E+01
     -2.726  0.3526E-12  0.2400E+01
     -2.624  0.0000E+00  0.2400E+01
     -2.522  0.0000E+00  0.2400E+01
     -2.419  0.0000E+00  0.2400E+01
     -2.317  0.0000E+00  0.2400E+01
     -2.215  0.0000E+00  0.2400E+01
     -2.113  0.0000E+00  0.2400E+01
     -2.011  0.0000E+00  0.2400E+01
     -1.908  0.0000E+00  0.2400E+01
     -1.806  0.0000E+00  0.2400E+01
     -1.704  0.0000E+00  0.2400E+01
     -1.602  0.0000E+00  0.2400E+01
     -1.500  0.0000E+00  0.2400E+01
     -1.397  0.0000E+00  0.2400E+01
     -1.295  0.0000E+00  0.2400E+01
     -1.193  0.0000E+00  0.2400E+01
     -1.091  0.0000E+00  0.2400E+01
     -0.989  0.0000E+00  0.2400E+01
     -0.887  0.0000E+00  0.2400E+01
     -0.784  0.0000E+00  0.2400E+01
     -0.682  0.0000E+00  0.2400E+01
     -0.580  0.4761E-13  0.2400E+01
     -0.478  0.4592E-06  0.2400E+01
     -0.376  0.2104E-02  0.2400E+01
     -0.273  0.4144E-01  0.2404E+01
     -0.171  0.1386E+00  0.2419E+01
     -0.069  0.3002E+00  0.2449E+01
      0.033  0.3668E+00  0.2487E+01
      0.135  0.3630E+00  0.2524E+01
      0.237  0.1788E+00  0.2542E+01
      0.340  0.2124E+00  0.2564E+01
      0.442  0.2407E+00  0.2588E+01
      0.544  0.1999E+00  0.2609E+01
      0.646  0.1552E+00  0.2625E+01
      0.748  0.2934E+00  0.2655E+01
      0.851  0.2327E+00  0.2678E+01
      0.953  0.1712E+00  0.2696E+01
      1.055  0.1239E+00  0.2709E+01
      1.157  0.1186E+00  0.2721E+01
      1.259  0.4164E+00  0.2763E+01
      1.361  0.2756E+00  0.2791E+01
      1.464  0.1678E+00  0.2809E+01
      1.566  0.2703E+00  0.2836E+01
      1.668  0.3038E+00  0.2867E+01
      1.770  0.4704E+00  0.2915E+01
      1.872  0.4521E+00  0.2962E+01
      1.975  0.3215E+00  0.2994E+01
      2.077  0.2181E+00  0.3017E+01
      2.179  0.2621E+00  0.3043E+01
      2.281  0.3063E+00  0.3075E+01
      2.383  0.2130E+00  0.3097E+01
      2.485  0.1328E+00  0.3110E+01
      2.588  0.3410E+00  0.3145E+01
      2.690  0.4872E+00  0.3195E+01
      2.792  0.2579E+00  0.3221E+01
      2.894  0.3388E+00  0.3256E+01
      2.996  0.3469E+00  0.3291E+01
      3.099  0.2950E+00  0.3321E+01
      3.201  0.1390E+00  0.3335E+01
      3.303  0.1822E+00  0.3354E+01
      3.405  0.1823E+00  0.3373E+01
      3.507  0.6341E-01  0.3379E+01
      3.610  0.9075E-01  0.3388E+01
      3.712  0.1209E+00  0.3401E+01
      3.814  0.1708E+00  0.3418E+01
      3.916  0.1563E+00  0.3434E+01
      4.018  0.1554E+00  0.3450E+01
      4.120  0.1974E+00  0.3470E+01
      4.223  0.3705E+00  0.3508E+01
      4.325  0.6577E+00  0.3575E+01
      4.427  0.5409E+00  0.3631E+01
      4.529  0.5264E+00  0.3684E+01
      4.631  0.4072E+00  0.3726E+01
      4.734  0.1961E+00  0.3746E+01
      4.836  0.1625E+00  0.3763E+01
      4.938  0.3561E+00  0.3799E+01
      5.040  0.1882E+00  0.3818E+01
      5.142  0.5567E-01  0.3824E+01
      5.244  0.5487E-01  0.3830E+01
      5.347  0.6639E-01  0.3836E+01
      5.449  0.3518E-01  0.3840E+01
      5.551  0.4749E-02  0.3840E+01
      5.653  0.6954E-02  0.3841E+01
      5.755  0.7426E-03  0.3841E+01
      5.858  0.7474E-02  0.3842E+01
      5.960  0.4695E-02  0.3843E+01
      6.062  0.5981E-02  0.3843E+01
      6.164  0.2313E-02  0.3843E+01
      6.266  0.1348E-01  0.3845E+01
      6.368  0.4158E-01  0.3849E+01
      6.471  0.3664E-01  0.3853E+01
      6.573  0.5395E-01  0.3858E+01
      6.675  0.6052E-01  0.3864E+01
      6.777  0.6839E-01  0.3871E+01
      6.879  0.1383E+00  0.3886E+01
      6.982  0.8823E-01  0.3895E+01
      7.084  0.1172E+00  0.3907E+01
      7.186  0.4795E-01  0.3911E+01
      7.288  0.1635E+00  0.3928E+01
      7.390  0.3074E+00  0.3960E+01
      7.492  0.2410E+00  0.3984E+01
      7.595  0.2551E+00  0.4010E+01
      7.697  0.2829E+00  0.4039E+01
      7.799  0.3026E+00  0.4070E+01
      7.901  0.1453E+00  0.4085E+01
      8.003  0.1801E+00  0.4103E+01
      8.106  0.2228E+00  0.4126E+01
      8.208  0.2288E+00  0.4149E+01
      8.310  0.3027E+00  0.4180E+01
      8.412  0.3411E+00  0.4215E+01
      8.514  0.2842E+00  0.4244E+01
      8.617  0.2545E+00  0.4270E+01
      8.719  0.3521E+00  0.4306E+01
      8.821  0.3042E+00  0.4337E+01
      8.923  0.3043E+00  0.4368E+01
      9.025  0.2529E+00  0.4394E+01
      9.127  0.2615E+00  0.4421E+01
      9.230  0.2200E+00  0.4444E+01
      9.332  0.1286E+00  0.4457E+01
      9.434  0.2539E+00  0.4483E+01
      9.536  0.4876E+00  0.4532E+01
      9.638  0.4646E+00  0.4580E+01
      9.741  0.3644E+00  0.4617E+01
      9.843  0.1734E+00  0.4635E+01
      9.945  0.4911E-01  0.4640E+01
     10.047  0.1090E-02  0.4640E+01
     10.149  0.3673E-07  0.4640E+01
     10.251  0.4129E-15  0.4640E+01
     10.354  0.0000E+00  0.4640E+01
     10.456  0.0000E+00  0.4640E+01
     10.558  0.0000E+00  0.4640E+01
     10.660  0.0000E+00  0.4640E+01
     10.762  0.0000E+00  0.4640E+01
     10.865  0.0000E+00  0.4640E+01
     10.967  0.0000E+00  0.4640E+01
     11.069  0.0000E+00  0.4640E+01
     11.171  0.0000E+00  0.4640E+01
     11.273  0.0000E+00  0.4640E+01
