       N       E                     dE             d eps       ncg     rms          rms(c)
DAV:   1     0.537175599136E+04    0.53718E+04   -0.17680E+05  5568   0.190E+03
DAV:   2     0.870191143918E+03   -0.45016E+04   -0.43659E+04  5616   0.543E+02
DAV:   3    -0.124234827285E+03   -0.99443E+03   -0.92957E+03  6232   0.252E+02
DAV:   4    -0.237584179718E+03   -0.11335E+03   -0.10974E+03  6528   0.775E+01
DAV:   5    -0.243398339255E+03   -0.58142E+01   -0.57490E+01  6880   0.168E+01    0.345E+01
DAV:   6    -0.208000938383E+03    0.35397E+02   -0.16150E+02  7536   0.482E+01    0.151E+01
DAV:   7    -0.207015212293E+03    0.98573E+00   -0.28986E+01  6208   0.119E+01    0.789E+00
DAV:   8    -0.207170946083E+03   -0.15573E+00   -0.57322E+00  7496   0.473E+00    0.329E+00
DAV:   9    -0.207125983054E+03    0.44963E-01   -0.58979E-01  7224   0.230E+00    0.155E+00
DAV:  10    -0.207107920360E+03    0.18063E-01   -0.20230E-01  7096   0.134E+00    0.434E-01
DAV:  11    -0.207110635844E+03   -0.27155E-02   -0.24077E-02  7648   0.312E-01    0.343E-01
DAV:  12    -0.207112111263E+03   -0.14754E-02   -0.66887E-03  7096   0.187E-01    0.153E-01
DAV:  13    -0.207112215942E+03   -0.10468E-03   -0.63628E-04  6416   0.872E-02    0.107E-01
DAV:  14    -0.207112109238E+03    0.10670E-03   -0.41684E-04  6928   0.416E-02    0.501E-02
DAV:  15    -0.207112092276E+03    0.16962E-04   -0.94298E-05  7720   0.206E-02    0.244E-02
DAV:  16    -0.207112087015E+03    0.52619E-05   -0.16618E-05  6800   0.953E-03    0.797E-03
DAV:  17    -0.207112085703E+03    0.13114E-05   -0.67303E-06  5880   0.546E-03    0.281E-03
DAV:  18    -0.207112086212E+03   -0.50884E-06   -0.54574E-07  5832   0.205E-03    0.176E-03
DAV:  19    -0.207112086411E+03   -0.19910E-06   -0.90537E-08  3536   0.114E-03    0.687E-04
DAV:  20    -0.207112086452E+03   -0.41121E-07   -0.55919E-08  3440   0.837E-04
   1 F= -.20711209E+03 E0= -.20711113E+03  d E =-.207112E+03
       N       E                     dE             d eps       ncg     rms          rms(c)
DAV:   1    -0.207112086414E+03   -0.32805E-08   -0.17856E-06  4584   0.250E-03    0.241E-04
DAV:   2    -0.207112086412E+03    0.19036E-08   -0.56485E-08  3360   0.983E-04    0.189E-04
DAV:   3    -0.207112086406E+03    0.61027E-08   -0.18190E-08  3336   0.634E-04    0.133E-04
DAV:   4    -0.207112086405E+03    0.16325E-08   -0.72883E-09  3320   0.397E-04    0.901E-05
DAV:   5    -0.207112086397E+03    0.72059E-08   -0.38789E-09  3312   0.306E-04
   2 F= -.20711209E+03 E0= -.20711113E+03  d E =0.546852E-07
       N       E                     dE             d eps       ncg     rms          rms(c)
DAV:   1    -0.207112086398E+03    0.63328E-08   -0.63910E-07  4272   0.148E-03    0.994E-05
DAV:   2    -0.207112086399E+03   -0.56934E-09   -0.17703E-08  3304   0.544E-04    0.675E-05
DAV:   3    -0.207112086405E+03   -0.59445E-08   -0.49126E-09  3248   0.358E-04    0.325E-05
DAV:   4    -0.207112086405E+03   -0.34197E-09   -0.21944E-09  3240   0.198E-04    0.295E-05
DAV:   5    -0.207112086404E+03    0.14825E-08   -0.10018E-09  3216   0.147E-04
   3 F= -.20711209E+03 E0= -.20711113E+03  d E =0.484388E-07
       N       E                     dE             d eps       ncg     rms          rms(c)
DAV:   1    -0.207112086402E+03    0.29850E-08   -0.52176E-08  3216   0.456E-04    0.519E-05
DAV:   2    -0.207112086401E+03    0.10150E-08   -0.54473E-09  3200   0.261E-04    0.372E-05
DAV:   3    -0.207112086401E+03   -0.15825E-09   -0.14758E-09  3144   0.185E-04    0.142E-05
DAV:   4    -0.207112086401E+03   -0.65484E-10   -0.74558E-10  3144   0.940E-05    0.155E-05
DAV:   5    -0.207112086401E+03    0.57298E-09   -0.33957E-10  3144   0.783E-05
   4 F= -.20711209E+03 E0= -.20711113E+03  d E =0.513055E-07
       N       E                     dE             d eps       ncg     rms          rms(c)
DAV:   1    -0.207112086402E+03   -0.43747E-09   -0.10732E-08  3120   0.206E-04    0.271E-05
DAV:   2    -0.207112086402E+03    0.26284E-09   -0.11655E-09  3096   0.127E-04    0.188E-05
DAV:   3    -0.207112086402E+03   -0.38290E-09   -0.33473E-10  3096   0.886E-05    0.709E-06
DAV:   4    -0.207112086401E+03    0.68849E-09   -0.17947E-10  3096   0.443E-05    0.746E-06
DAV:   5    -0.207112086402E+03   -0.82855E-09   -0.86797E-11  3096   0.377E-05
   5 F= -.20711209E+03 E0= -.20711113E+03  d E =0.500349E-07
