 vasp.6.4.3 19Mar24 (build Apr 09 2025 20:43:19) complex                        
  
 executed on             LinuxIFC date 2025.04.16  14:04:11
 running   36 mpi-ranks, on    1 nodes
 distrk:  each k-point on   36 cores,    1 groups
 distr:  one band on NCORE=   9 cores,    4 groups


--------------------------------------------------------------------------------------------------------


 INCAR:
   PREC = Accurate
   IBRION = 2
   NSW = 100
   NELMIN = 5
   ISIF = 2
   ENCUT = 520
   EDIFF = 1.000000e-07
   EDIFFG = -1.000000e-4
   ISMEAR = 0
   SIGMA = 0.05
   IALGO = 38
   LREAL = .FALSE.
   ADDGRID = .TRUE.
   LWAVE = .FALSE.
   LCHARG = .FALSE.
   NCORE = 9

 POTCAR:    PAW_PBE Bi_d 06Sep2000                
 POTCAR:    PAW_PBE Se 06Sep2000                  
 POTCAR:    PAW_PBE O 08Apr2002                   
 POTCAR:    PAW_PBE S 06Sep2000                   
 POTCAR:    PAW_PBE Bi_d 06Sep2000                
   SHA256 =  572e7eac3f9482ff025db24f2820381a7a3856069fa85913dc654793f618f69a Bi_d/POTCAR           
   COPYR  = (c) Copyright 06Sep2000 Georg Kresse                                                    
   COPYR  = This file is part of the software VASP. Any use, copying, and all other rights are regul
   COPYR  = If you do not have a valid VASP license, you may not use, copy or distribute this file. 
   VRHFIN =Bi:                                                                                      
   LEXCH  = PE                                                                                      
   EATOM  =  1959.2045 eV,  143.9975 Ry                                                             
                                                                                                    
   TITEL  = PAW_PBE Bi_d 06Sep2000                                                                  
   LULTRA =        F    use ultrasoft PP ?                                                          
   IUNSCR =        1    unscreen: 0-lin 1-nonlin 2-no                                               
   RPACOR =    2.200    partial core radius                                                         
   POMASS =  208.980; ZVAL   =   15.000    mass and valenz                                          
   RCORE  =    2.500    outmost cutoff radius                                                       
   RWIGS  =    3.090; RWIGS  =    1.635    wigner-seitz radius (au A)                               
   ENMAX  =  242.839; ENMIN  =  182.129 eV                                                          
   ICORE  =        3    local potential                                                             
   LCOR   =        T    correct aug charges                                                         
   LPAW   =        T    paw PP                                                                      
   EAUG   =  442.899                                                                                
   DEXC   =    0.000                                                                                
   RMAX   =    2.551    core radius for proj-oper                                                   
   RAUG   =    1.300    factor for augmentation sphere                                              
   RDEP   =    2.650    radius for radial grids                                                     
   RDEPT  =    2.039    core radius for aug-charge                                                  
                                                                                                    
   Atomic configuration                                                                             
   16 entries                                                                                       
     n  l   j            E        occ.                                                              
     1  0  0.50    -90639.6581   2.0000                                                             
     2  0  0.50    -16282.4666   2.0000                                                             
     2  1  1.50    -13922.8286   6.0000                                                             
     3  0  0.50     -3930.4763   2.0000                                                             
     3  1  1.50     -3256.7013   6.0000                                                             
     3  2  2.50     -2581.6168  10.0000                                                             
     4  0  0.50      -902.2614   2.0000                                                             
     4  1  1.50      -681.5915   6.0000                                                             
     4  2  2.50      -429.8249  10.0000                                                             
     4  3  3.50      -152.6004  14.0000                                                             
     5  0  0.50      -157.7156   2.0000                                                             
     5  1  1.50       -95.8054   6.0000                                                             
     5  2  2.50       -27.0806  10.0000                                                             
     6  0  0.50       -14.4732   2.0000                                                             
     6  1  1.50        -4.5702   3.0000                                                             
     5  3  2.50        -2.7212   0.0000                                                             
   Description                                                                                      
     l       E           TYP  RCUT    TYP  RCUT                                                     
     2    -27.0805982     23  2.500                                                                 
     2     -1.3605826     23  2.500                                                                 
     0    -14.4732271     23  2.500                                                                 
     0      6.8029130     23  2.500                                                                 
     1     -4.5701651     23  2.500                                                                 
     1     13.6058260     23  2.500                                                                 
     3     -1.3605826      7  2.500                                                                 
  local pseudopotential read in
  partial core-charges read in
  partial kinetic energy density read in
  atomic valenz-charges read in
  non local Contribution for L=           2  read in
    real space projection operators read in
  non local Contribution for L=           2  read in
    real space projection operators read in
  non local Contribution for L=           0  read in
    real space projection operators read in
  non local Contribution for L=           0  read in
    real space projection operators read in
  non local Contribution for L=           1  read in
    real space projection operators read in
  non local Contribution for L=           1  read in
    real space projection operators read in
    PAW grid and wavefunctions read in
 
   number of l-projection  operators is LMAX  =           6
   number of lm-projection operators is LMMAX =          18
 
 POTCAR:    PAW_PBE Se 06Sep2000                  
   SHA256 =  eabb916e6b4c819dc065ce039373bc328651da483898f08fb9e49c498452bf12 Se/POTCAR             
   COPYR  = (c) Copyright 06Sep2000 Georg Kresse                                                    
   COPYR  = This file is part of the software VASP. Any use, copying, and all other rights are regul
   COPYR  = If you do not have a valid VASP license, you may not use, copy or distribute this file. 
   VRHFIN =Se: s2p4                                                                                 
   LEXCH  = PE                                                                                      
   EATOM  =   257.1286 eV,   18.8984 Ry                                                             
                                                                                                    
   TITEL  = PAW_PBE Se 06Sep2000                                                                    
   LULTRA =        F    use ultrasoft PP ?                                                          
   IUNSCR =        1    unscreen: 0-lin 1-nonlin 2-no                                               
   RPACOR =    1.900    partial core radius                                                         
   POMASS =   78.960; ZVAL   =    6.000    mass and valenz                                          
   RCORE  =    2.100    outmost cutoff radius                                                       
   RWIGS  =    2.200; RWIGS  =    1.164    wigner-seitz radius (au A)                               
   ENMAX  =  211.555; ENMIN  =  158.666 eV                                                          
   ICORE  =        3    local potential                                                             
   LCOR   =        T    correct aug charges                                                         
   LPAW   =        T    paw PP                                                                      
   EAUG   =  446.842                                                                                
   DEXC   =    0.000                                                                                
   RMAX   =    2.147    core radius for proj-oper                                                   
   RAUG   =    1.300    factor for augmentation sphere                                              
   RDEP   =    2.177    radius for radial grids                                                     
   RDEPT  =    1.928    core radius for aug-charge                                                  
                                                                                                    
   Atomic configuration                                                                             
   10 entries                                                                                       
     n  l   j            E        occ.                                                              
     1  0  0.50    -12503.4787   2.0000                                                             
     2  0  0.50     -1606.9547   2.0000                                                             
     2  1  1.50     -1413.3140   6.0000                                                             
     3  0  0.50      -213.4885   2.0000                                                             
     3  1  1.50      -152.9538   6.0000                                                             
     3  2  2.50       -53.1221  10.0000                                                             
     4  0  0.50       -17.2865   2.0000                                                             
     4  1  0.50        -6.5110   4.0000                                                             
     4  2  2.50        -6.8029   0.0000                                                             
     4  3  2.50        -6.8029   0.0000                                                             
   Description                                                                                      
     l       E           TYP  RCUT    TYP  RCUT                                                     
     0    -17.2865377     23  2.100                                                                 
     0    -15.3094411     23  2.100                                                                 
     1     -6.5110275     23  2.100                                                                 
     1     -0.0695192     23  2.100                                                                 
     2     -6.8029130     23  2.100                                                                 
     3     -1.3605826      7  2.100                                                                 
  local pseudopotential read in
  partial core-charges read in
  partial kinetic energy density read in
  atomic valenz-charges read in
  non local Contribution for L=           0  read in
    real space projection operators read in
  non local Contribution for L=           0  read in
    real space projection operators read in
  non local Contribution for L=           1  read in
    real space projection operators read in
  non local Contribution for L=           1  read in
    real space projection operators read in
  non local Contribution for L=           2  read in
    real space projection operators read in
    PAW grid and wavefunctions read in
 
   number of l-projection  operators is LMAX  =           5
   number of lm-projection operators is LMMAX =          13
 
 POTCAR:    PAW_PBE O 08Apr2002                   
   SHA256 =  818f92134a0a090dccd8ba1447fa70422a3b330e708bb4f08108d8ae51209ddf O/POTCAR              
   COPYR  = (c) Copyright 08Apr2002 Georg Kresse                                                    
   COPYR  = This file is part of the software VASP. Any use, copying, and all other rights are regul
   COPYR  = If you do not have a valid VASP license, you may not use, copy or distribute this file. 
   VRHFIN =O: s2p4                                                                                  
   LEXCH  = PE                                                                                      
   EATOM  =   432.3788 eV,   31.7789 Ry                                                             
                                                                                                    
   TITEL  = PAW_PBE O 08Apr2002                                                                     
   LULTRA =        F    use ultrasoft PP ?                                                          
   IUNSCR =        1    unscreen: 0-lin 1-nonlin 2-no                                               
   RPACOR =    1.200    partial core radius                                                         
   POMASS =   16.000; ZVAL   =    6.000    mass and valenz                                          
   RCORE  =    1.520    outmost cutoff radius                                                       
   RWIGS  =    1.550; RWIGS  =    0.820    wigner-seitz radius (au A)                               
   ENMAX  =  400.000; ENMIN  =  300.000 eV                                                          
   ICORE  =        2    local potential                                                             
   LCOR   =        T    correct aug charges                                                         
   LPAW   =        T    paw PP                                                                      
   EAUG   =  605.392                                                                                
   DEXC   =    0.000                                                                                
   RMAX   =    1.553    core radius for proj-oper                                                   
   RAUG   =    1.300    factor for augmentation sphere                                              
   RDEP   =    1.550    radius for radial grids                                                     
   RDEPT  =    1.329    core radius for aug-charge                                                  
                                                                                                    
   Atomic configuration                                                                             
    4 entries                                                                                       
     n  l   j            E        occ.                                                              
     1  0  0.50      -514.6923   2.0000                                                             
     2  0  0.50       -23.9615   2.0000                                                             
     2  1  0.50        -9.0305   4.0000                                                             
     3  2  1.50        -9.5241   0.0000                                                             
   Description                                                                                      
     l       E           TYP  RCUT    TYP  RCUT                                                     
     0    -23.9615318     23  1.200                                                                 
     0     -9.5240782     23  1.200                                                                 
     1     -9.0304911     23  1.520                                                                 
     1      8.1634956     23  1.520                                                                 
     2     -9.5240782      7  1.500                                                                 
  local pseudopotential read in
  partial core-charges read in
  partial kinetic energy density read in
  kinetic energy density of atom read in
  atomic valenz-charges read in
  non local Contribution for L=           0  read in
    real space projection operators read in
  non local Contribution for L=           0  read in
    real space projection operators read in
  non local Contribution for L=           1  read in
    real space projection operators read in
  non local Contribution for L=           1  read in
    real space projection operators read in
    PAW grid and wavefunctions read in
 
   number of l-projection  operators is LMAX  =           4
   number of lm-projection operators is LMMAX =           8
 
 POTCAR:    PAW_PBE S 06Sep2000                   
   SHA256 =  0fc7481fb0695f01bdc6462160264c5c84044ae9ec85a907d398b887a2bc3132 S/POTCAR              
   COPYR  = (c) Copyright 06Sep2000 Georg Kresse                                                    
   COPYR  = This file is part of the software VASP. Any use, copying, and all other rights are regul
   COPYR  = If you do not have a valid VASP license, you may not use, copy or distribute this file. 
   VRHFIN =S : s2p4                                                                                 
   LEXCH  = PE                                                                                      
   EATOM  =   276.8230 eV,   20.3459 Ry                                                             
                                                                                                    
   TITEL  = PAW_PBE S 06Sep2000                                                                     
   LULTRA =        F    use ultrasoft PP ?                                                          
   IUNSCR =        1    unscreen: 0-lin 1-nonlin 2-no                                               
   RPACOR =    1.500    partial core radius                                                         
   POMASS =   32.066; ZVAL   =    6.000    mass and valenz                                          
   RCORE  =    1.900    outmost cutoff radius                                                       
   RWIGS  =    2.200; RWIGS  =    1.164    wigner-seitz radius (au A)                               
   ENMAX  =  258.689; ENMIN  =  194.016 eV                                                          
   ICORE  =        2    local potential                                                             
   LCOR   =        T    correct aug charges                                                         
   LPAW   =        T    paw PP                                                                      
   EAUG   =  335.092                                                                                
   DEXC   =    0.000                                                                                
   RMAX   =    1.942    core radius for proj-oper                                                   
   RAUG   =    1.300    factor for augmentation sphere                                              
   RDEP   =    1.954    radius for radial grids                                                     
   RDEPT  =    1.744    core radius for aug-charge                                                  
                                                                                                    
   Atomic configuration                                                                             
    6 entries                                                                                       
     n  l   j            E        occ.                                                              
     1  0  0.50     -2405.8406   2.0000                                                             
     2  0  0.50      -211.7007   2.0000                                                             
     2  1  1.50      -156.4958   6.0000                                                             
     3  0  0.50       -17.2562   2.0000                                                             
     3  1  0.50        -7.0085   4.0000                                                             
     3  2  1.50        -6.8029   0.0000                                                             
   Description                                                                                      
     l       E           TYP  RCUT    TYP  RCUT                                                     
     0    -17.2561641     23  1.900                                                                 
     0    -15.8743224     23  1.900                                                                 
     1     -7.0085400     23  1.900                                                                 
     1     -2.7779785     23  1.900                                                                 
     2     -6.8029130     23  1.900                                                                 
  local pseudopotential read in
  partial core-charges read in
  partial kinetic energy density read in
  atomic valenz-charges read in
  non local Contribution for L=           0  read in
    real space projection operators read in
  non local Contribution for L=           0  read in
    real space projection operators read in
  non local Contribution for L=           1  read in
    real space projection operators read in
  non local Contribution for L=           1  read in
    real space projection operators read in
    PAW grid and wavefunctions read in
 
   number of l-projection  operators is LMAX  =           4
   number of lm-projection operators is LMMAX =           8
 
 -----------------------------------------------------------------------------
|                                                                             |
|               ----> ADVICE to this user running VASP <----                  |
|                                                                             |
|     You have a (more or less) 'large supercell' and for larger cells it     |
|     might be more efficient to use real-space projection operators.         |
|     Therefore, try LREAL= Auto in the INCAR file.                           |
|     Mind: For very accurate calculation, you might also keep the            |
|     reciprocal projection scheme (i.e. LREAL=.FALSE.).                      |
|                                                                             |
 -----------------------------------------------------------------------------

  PAW_PBE Bi_d 06Sep2000                :
 energy of atom  1       EATOM=-1959.2045
 kinetic energy error for atom=    0.0040 (will be added to EATOM!!)
  PAW_PBE Se 06Sep2000                  :
 energy of atom  2       EATOM= -257.1286
 kinetic energy error for atom=    0.0007 (will be added to EATOM!!)
  PAW_PBE O 08Apr2002                   :
 energy of atom  3       EATOM= -432.3788
 kinetic energy error for atom=    0.0208 (will be added to EATOM!!)
  PAW_PBE S 06Sep2000                   :
 energy of atom  4       EATOM= -276.8230
 kinetic energy error for atom=    0.0016 (will be added to EATOM!!)
 
 
 POSCAR: generated by phonopy
  positions in direct lattice
  velocities in cartesian coordinates


 exchange-correlation table for PE
   RHO(1)=    0.500       N(1)  =     2000
   RHO(2)=  100.500       N(2)  =     4000
 


--------------------------------------------------------------------------------------------------------


 ion  position               nearest neighbor table
   1  0.248  0.248  0.849-  24 2.38  28 2.38  25 2.40  30 2.40   8 3.80   7 3.81   6 3.81   5 3.83
                            13 3.86
   2  0.752  0.248  0.849-  24 2.38  29 2.38  25 2.40  31 2.40   8 3.80   7 3.81   6 3.81   5 3.83
                            14 3.86
   3  0.248  0.752  0.849-  26 2.38  28 2.38  27 2.40  30 2.40   8 3.80   7 3.81   6 3.81   5 3.83
                            15 3.86
   4  0.752  0.752  0.849-  26 2.38  29 2.38  27 2.40  31 2.40   8 3.80   7 3.81   6 3.81   5 3.83
                            16 3.86
   5  0.000  0.000  0.650-  24 2.41  26 2.41  28 2.41  29 2.41   1 3.83   2 3.83   3 3.83   4 3.83
                             9 3.84
   6  0.500  0.000  0.653-  28 2.38  29 2.38  25 2.39  27 2.39   1 3.81   2 3.81   3 3.81   4 3.81
                            10 3.92
   7  0.000  0.500  0.653-  24 2.38  26 2.38  30 2.39  31 2.39   1 3.81   2 3.81   3 3.81   4 3.81
                            11 3.92
   8  0.500  0.500  0.656-  25 2.36  27 2.36  30 2.36  31 2.36   1 3.80   2 3.80   3 3.80   4 3.80

   9  0.000  0.000  0.350-  32 2.41  33 2.41  36 2.41  38 2.41  13 3.83  14 3.83  15 3.83  16 3.83
                             5 3.84
  10  0.500  0.000  0.347-  32 2.38  33 2.38  37 2.39  39 2.39  13 3.81  14 3.81  15 3.81  16 3.81
                             6 3.92
  11  0.000  0.500  0.347-  36 2.38  38 2.38  34 2.39  35 2.39  13 3.81  14 3.81  15 3.81  16 3.81
                             7 3.92
  12  0.500  0.500  0.344-  34 2.36  35 2.36  37 2.36  39 2.36  13 3.80  14 3.80  15 3.80  16 3.80

  13  0.248  0.248  0.151-  32 2.38  36 2.38  34 2.40  37 2.40  12 3.80  11 3.81  10 3.81   9 3.83
                             1 3.86
  14  0.752  0.248  0.151-  33 2.38  36 2.38  35 2.40  37 2.40  12 3.80  11 3.81  10 3.81   9 3.83
                             2 3.86
  15  0.248  0.752  0.151-  32 2.38  38 2.38  34 2.40  39 2.40  12 3.80  11 3.81  10 3.81   9 3.83
                             3 3.86
  16  0.752  0.752  0.151-  33 2.38  38 2.38  35 2.40  39 2.40  12 3.80  11 3.81  10 3.81   9 3.83
                             4 3.86
  17  0.500  0.000  0.000-
  18  0.000  0.500  0.000-
  19  0.500  0.500  0.000-
  20  0.246  0.246  0.500-
  21  0.754  0.246  0.500-
  22  0.246  0.754  0.500-
  23  0.754  0.754  0.500-
  24  0.000  0.251  0.751-   1 2.38   2 2.38   7 2.38   5 2.41
  25  0.500  0.251  0.751-   8 2.36   6 2.39   1 2.40   2 2.40
  26  0.000  0.749  0.751-   3 2.38   4 2.38   7 2.38   5 2.41
  27  0.500  0.749  0.751-   8 2.36   6 2.39   3 2.40   4 2.40
  28  0.251  0.000  0.751-   1 2.38   3 2.38   6 2.38   5 2.41
  29  0.749  0.000  0.751-   2 2.38   4 2.38   6 2.38   5 2.41
  30  0.251  0.500  0.751-   8 2.36   7 2.39   1 2.40   3 2.40
  31  0.749  0.500  0.751-   8 2.36   7 2.39   2 2.40   4 2.40
  32  0.251  0.000  0.249-  13 2.38  15 2.38  10 2.38   9 2.41
  33  0.749  0.000  0.249-  14 2.38  16 2.38  10 2.38   9 2.41
  34  0.251  0.500  0.249-  12 2.36  11 2.39  13 2.40  15 2.40
  35  0.749  0.500  0.249-  12 2.36  11 2.39  14 2.40  16 2.40
  36  0.000  0.251  0.249-  13 2.38  14 2.38  11 2.38   9 2.41
  37  0.500  0.251  0.249-  12 2.36  10 2.39  13 2.40  14 2.40
  38  0.000  0.749  0.249-  15 2.38  16 2.38  11 2.38   9 2.41
  39  0.500  0.749  0.249-  12 2.36  10 2.39  15 2.40  16 2.40
  40  0.000  0.000  0.000-
 
  LATTYP: Found a simple tetragonal cell.
 ALAT       =     8.1145646154
 C/A-ratio  =     1.5781187256
  
  Lattice vectors:
  
 A1 = (   8.1145646154,   0.0000000000,   0.0000000000)
 A2 = (   0.0000000000,   8.1145646154,   0.0000000000)
 A3 = (   0.0000000000,   0.0000000000,  12.8057463696)


Analysis of symmetry for initial positions (statically):
=====================================================================
 Subroutine PRICEL returns:
 Original cell was already a primitive cell.
 

 Routine SETGRP: Setting up the symmetry group for a 
 simple tetragonal supercell.


 Subroutine GETGRP returns: Found 16 space group operations
 (whereof 16 operations were pure point group operations)
 out of a pool of 16 trial point group operations.


The static configuration has the point symmetry D_4h.


Analysis of symmetry for dynamics (positions and initial velocities):
=====================================================================
 Subroutine PRICEL returns:
 Original cell was already a primitive cell.
 

 Routine SETGRP: Setting up the symmetry group for a 
 simple tetragonal supercell.


 Subroutine GETGRP returns: Found 16 space group operations
 (whereof 16 operations were pure point group operations)
 out of a pool of 16 trial point group operations.


The dynamic configuration has the point symmetry D_4h.


 Subroutine INISYM returns: Found 16 space group operations
 (whereof 16 operations are pure point group operations),
 and found     1 'primitive' translations


----------------------------------------------------------------------------------------

                                     Primitive cell                                     

  volume of cell :     843.2092

  direct lattice vectors                    reciprocal lattice vectors
     8.114564615  0.000000000  0.000000000     0.123235201  0.000000000  0.000000000
     0.000000000  8.114564615  0.000000000     0.000000000  0.123235201  0.000000000
     0.000000000  0.000000000 12.805746370     0.000000000  0.000000000  0.078089943

  length of vectors
     8.114564615  8.114564615 12.805746370     0.123235201  0.123235201  0.078089943

  position of ions in fractional coordinates (direct lattice)
     0.248479351  0.248479351  0.849189155
     0.751520649  0.248479351  0.849189155
     0.248479351  0.751520649  0.849189155
     0.751520649  0.751520649  0.849189155
     0.000000000  0.000000000  0.649925397
     0.500000000  0.000000000  0.653066062
     0.000000000  0.500000000  0.653066062
     0.500000000  0.500000000  0.655857363
     0.000000000  0.000000000  0.350074603
     0.500000000  0.000000000  0.346933938
     0.000000000  0.500000000  0.346933938
     0.500000000  0.500000000  0.344142637
     0.248479351  0.248479351  0.150810845
     0.751520649  0.248479351  0.150810845
     0.248479351  0.751520649  0.150810845
     0.751520649  0.751520649  0.150810845
     0.500000000  0.000000000  0.000000000
     0.000000000  0.500000000  0.000000000
     0.500000000  0.500000000  0.000000000
     0.245531482  0.245531482  0.500000000
     0.754468518  0.245531482  0.500000000
     0.245531482  0.754468518  0.500000000
     0.754468518  0.754468518  0.500000000
     0.000000000  0.250693159  0.751124739
     0.500000000  0.250698907  0.751043701
     0.000000000  0.749306841  0.751124739
     0.500000000  0.749301093  0.751043701
     0.250693159  0.000000000  0.751124739
     0.749306841  0.000000000  0.751124739
     0.250698907  0.500000000  0.751043701
     0.749301093  0.500000000  0.751043701
     0.250693159  0.000000000  0.248875261
     0.749306841  0.000000000  0.248875261
     0.250698907  0.500000000  0.248956299
     0.749301093  0.500000000  0.248956299
     0.000000000  0.250693159  0.248875261
     0.500000000  0.250698907  0.248956299
     0.000000000  0.749306841  0.248875261
     0.500000000  0.749301093  0.248956299
     0.000000000  0.000000000  0.000000000

  ion indices of the primitive-cell ions
   primitive index   ion index
                 1           1
                 2           2
                 3           3
                 4           4
                 5           5
                 6           6
                 7           7
                 8           8
                 9           9
                10          10
                11          11
                12          12
                13          13
                14          14
                15          15
                16          16
                17          17
                18          18
                19          19
                20          20
                21          21
                22          22
                23          23
                24          24
                25          25
                26          26
                27          27
                28          28
                29          29
                30          30
                31          31
                32          32
                33          33
                34          34
                35          35
                36          36
                37          37
                38          38
                39          39
                40          40

----------------------------------------------------------------------------------------

 
 
 KPOINTS: K-Spacing Value to Generate K-Mesh: 0.03

Automatic generation of k-mesh.
 Grid dimensions read from file:
 generate k-points for:    4    4    3

 Generating k-lattice:

  Cartesian coordinates                     Fractional coordinates (reciprocal lattice)
     0.030808800  0.000000000  0.000000000     0.250000000  0.000000000  0.000000000
     0.000000000  0.030808800  0.000000000     0.000000000  0.250000000  0.000000000
     0.000000000  0.000000000  0.026029981     0.000000000  0.000000000  0.333333333

  Length of vectors
     0.030808800  0.030808800  0.026029981

  Shift w.r.t. Gamma in fractional coordinates (k-lattice)
     0.000000000  0.000000000  0.000000000

 
 Subroutine IBZKPT returns following result:
 ===========================================
 
 Found     12 irreducible k-points:
 
 Following reciprocal coordinates:
            Coordinates               Weight
  0.000000  0.000000  0.000000      1.000000
  0.250000  0.000000  0.000000      4.000000
  0.500000  0.000000  0.000000      2.000000
  0.250000  0.250000  0.000000      4.000000
  0.500000  0.250000  0.000000      4.000000
  0.500000  0.500000  0.000000      1.000000
  0.000000  0.000000  0.333333      2.000000
  0.250000  0.000000  0.333333      8.000000
  0.500000  0.000000  0.333333      4.000000
  0.250000  0.250000  0.333333      8.000000
  0.500000  0.250000  0.333333      8.000000
  0.500000  0.500000  0.333333      2.000000
 
 Following cartesian coordinates:
            Coordinates               Weight
  0.000000  0.000000  0.000000      1.000000
  0.031887  0.000000  0.000000      4.000000
  0.063774  0.000000  0.000000      2.000000
  0.031887  0.031887  0.000000      4.000000
  0.063774  0.031887  0.000000      4.000000
  0.063774  0.063774  0.000000      1.000000
  0.000000  0.000000  0.026941      2.000000
  0.031887  0.000000  0.026941      8.000000
  0.063774  0.000000  0.026941      4.000000
  0.031887  0.031887  0.026941      8.000000
  0.063774  0.031887  0.026941      8.000000
  0.063774  0.063774  0.026941      2.000000
 


--------------------------------------------------------------------------------------------------------




 Dimension of arrays:
   k-points           NKPTS =     12   k-points in BZ     NKDIM =     12   number of bands    NBANDS=    232
   number of dos      NEDOS =    301   number of ions     NIONS =     40
   non local maximal  LDIM  =      6   non local SUM 2l+1 LMDIM =     18
   total plane-waves  NPLWV = 345600
   max r-space proj   IRMAX =      1   max aug-charges    IRDMAX= 145090
   dimension x,y,z NGX =    60 NGY =   60 NGZ =   96
   dimension x,y,z NGXF=   120 NGYF=  120 NGZF=  192
   support grid    NGXF=   240 NGYF=  240 NGZF=  384
   ions per type =              16   7  16   1
   NGX,Y,Z   is equivalent  to a cutoff of  12.29, 12.29, 12.46 a.u.
   NGXF,Y,Z  is equivalent  to a cutoff of  24.58, 24.58, 24.93 a.u.

 SYSTEM =  unknown system                          
 POSCAR =  generated by phonopy                    

 Startparameter for this run:
   NWRITE =      2    write-flag & timer
   PREC   = accura    normal or accurate (medium, high low for compatibility)
   ISTART =      0    job   : 0-new  1-cont  2-samecut
   ICHARG =      2    charge: 1-file 2-atom 10-const
   ISPIN  =      1    spin polarized calculation?
   LNONCOLLINEAR =      F non collinear calculations
   LSORBIT =      F    spin-orbit coupling
   INIWAV =      1    electr: 0-lowe 1-rand  2-diag
   LASPH  =      F    aspherical Exc in radial PAW
 Electronic Relaxation 1
   ENCUT  =  520.0 eV  38.22 Ry    6.18 a.u.  15.09 15.09 23.81*2*pi/ulx,y,z
   ENINI  =  520.0     initial cutoff
   ENAUG  =  605.4 eV  augmentation charge cutoff
   NELM   =     60;   NELMIN=  5; NELMDL= -5     # of ELM steps 
   EDIFF  = 0.1E-06   stopping-criterion for ELM
   LREAL  =      F    real-space projection
   NLSPLINE    = F    spline interpolate recip. space projectors
   LCOMPAT=      F    compatible to vasp.4.4
   GGA_COMPAT  = T    GGA compatible to vasp.4.4-vasp.4.6
   LMAXPAW     = -100 max onsite density
   LMAXMIX     =    2 max onsite mixed and CHGCAR
   VOSKOWN=      0    Vosko Wilk Nusair interpolation
   ROPT   =    0.00000   0.00000   0.00000   0.00000
 Ionic relaxation
   EDIFFG = -.1E-03   stopping-criterion for IOM
   NSW    =    100    number of steps for IOM
   NBLOCK =      1;   KBLOCK =    100    inner block; outer block 
   IBRION =      2    ionic relax: 0-MD 1-quasi-New 2-CG
   NFREE  =      1    steps in history (QN), initial steepest desc. (CG)
   ISIF   =      2    stress and relaxation
   IWAVPR =     11    prediction:  0-non 1-charg 2-wave 3-comb
   ISYM   =      2    0-nonsym 1-usesym 2-fastsym
   LCORR  =      T    Harris-Foulkes like correction to forces

   POTIM  = 0.5000    time-step for ionic-motion
   TEIN   =    0.0    initial temperature
   TEBEG  =    0.0;   TEEND  =   0.0 temperature during run
   SMASS  =  -3.00    Nose mass-parameter (am)
   estimated Nose-frequenzy (Omega)   =  0.10E-29 period in steps = 0.13E+47 mass=  -0.150E-26a.u.
   SCALEE = 1.0000    scale energy and forces
   NPACO  =    256;   APACO  = 10.0  distance and # of slots for P.C.
   PSTRESS=    0.0 pullay stress

  Mass of Ions in am
   POMASS = 208.98 78.96 16.00 32.07
  Ionic Valenz
   ZVAL   =  15.00  6.00  6.00  6.00
  Atomic Wigner-Seitz radii
   RWIGS  =  -1.00 -1.00 -1.00 -1.00
  virtual crystal weights 
   VCA    =   1.00  1.00  1.00  1.00
   NELECT =     384.0000    total number of electrons
   NUPDOWN=      -1.0000    fix difference up-down

 DOS related values:
   EMIN   =  10.00;   EMAX   =-10.00  energy-range for DOS
   EFERMI =   0.00;   METHOD = LEGACY      
   ISMEAR =     0;   SIGMA  =   0.05  broadening in eV -4-tet -1-fermi 0-gaus

 Electronic relaxation 2 (details)
   IALGO  =     38    algorithm
   LDIAG  =      T    sub-space diagonalisation (order eigenvalues)
   LSUBROT=      F    optimize rotation matrix (better conditioning)
   TURBO    =      0    0=normal 1=particle mesh
   IRESTART =      0    0=no restart 2=restart with 2 vectors
   NREBOOT  =      0    no. of reboots
   NMIN     =      0    reboot dimension
   EREF     =   0.00    reference energy to select bands
   IMIX   =      4    mixing-type and parameters
     AMIX     =   0.40;   BMIX     =  1.00
     AMIX_MAG =   1.60;   BMIX_MAG =  1.00
     AMIN     =   0.10
     WC   =   100.;   INIMIX=   1;  MIXPRE=   1;  MAXMIX= -45

 Intra band minimization:
   WEIMIN = 0.0010     energy-eigenvalue tresh-hold
   EBREAK =  0.11E-09  absolut break condition
   DEPER  =   0.30     relativ break condition  

   TIME   =   0.40     timestep for ELM

  volume/ion in A,a.u.               =      21.08       142.26
  Fermi-wavevector in a.u.,A,eV,Ry     =   1.259525  2.380157 21.584326  1.586403
  Thomas-Fermi vector in A             =   2.393080
 
 Write flags
   LWAVE        =      F    write WAVECAR
   LDOWNSAMPLE  =      F    k-point downsampling of WAVECAR
   LCHARG       =      F    write CHGCAR
   LVTOT        =      F    write LOCPOT, total local potential
   LVHAR        =      F    write LOCPOT, Hartree potential only
   WRT_POTENTIAL= false  ! write potential to hdf5 file
   LELF         =      F    write electronic localiz. function (ELF)
   LORBIT       =      0    0 simple, 1 ext, 2 COOP (PROOUT), +10 PAW based schemes


 Dipole corrections
   LMONO      =      F    monopole corrections only (constant potential shift)
   LDIPOL     =      F    correct potential (dipole corrections)
   IDIPOL     =      0    1-x, 2-y, 3-z, 4-all directions 
   EPSILON    =  1.0000000 bulk dielectric constant
   LVACPOTAV  =      F  vacuum potentials using an averaging scheme for the charge density
   VACPOTFLAT =  0.1000000 required flatness to determine vacuum potential
 Exchange correlation treatment:
   GGA     = PE    functional components
   XC_C    = 1    coefficients multiplying the functional components
   LIBXC   =     F    Libxc                    
   VOSKOWN =     0    Vosko Wilk Nusair interpolation
   LHFCALC =     F    Hartree Fock is set to
   LHFONE  =     F    Hartree Fock one center treatment
   AEXX    =    0.0000 exact exchange contribution

 Parameters of functionals:
   PE:
     No parameter
 
 Van der Waals corrections
   IVDW    =     0    specifies the selected vdW correction

 Linear response parameters
   LEPSILON=     F    determine dielectric tensor
   LRPA    =     F    only Hartree local field effects (RPA)
   LNABLA  =     F    use nabla operator in PAW spheres
   LVEL    =     F    velocity operator in full k-point grid
   CSHIFT  =0.1000    complex shift for real part using Kramers Kronig
   OMEGAMAX=  -1.0    maximum frequency
   DEG_THRESHOLD= 0.2000000E-02 threshold for treating states as degnerate
   RTIME   =   -0.100 relaxation time in fs
  (WPLASMAI=    0.000 imaginary part of plasma frequency in eV, 0.658/RTIME)
   DFIELD  = 0.0000000 0.0000000 0.0000000 field for delta impulse in time
 
  Optional k-point grid parameters
   LKPOINTS_OPT  =     F    use optional k-point grid
   KPOINTS_OPT_MODE=     1    mode for optional k-point grid
 
 Orbital magnetization related:
   ORBITALMAG=     F  switch on orbital magnetization
   LCHIMAG   =     F  perturbation theory with respect to B field
   DQ        =  0.001000  dq finite difference perturbation B field
   LLRAUG    =     F  two centre corrections for induced B field
   LBONE     =     F  B-component reconstruction in AE one-centre
   LVGVCALC  =     T  calculate vGv susceptibility
   LVGVAPPL  =     F  apply vGv susceptibility instead of pGv for G=0

 Random number generation:
   RANDOM_GENERATOR = DEFAULT
   PCG_SEED         = not used


--------------------------------------------------------------------------------------------------------


 conjugate gradient relaxation of ions
 charge density and potential will be updated during run
 non-spin polarized calculation
 Variant of blocked Davidson
 Davidson routine will perform the subspace rotation
 perform sub-space diagonalisation
    after iterative eigenvector-optimisation
 modified Broyden-mixing scheme, WC =      100.0
 initial mixing is a Kerker type mixing with AMIX =  0.4000 and BMIX =      1.0000
 Hartree-type preconditioning will be used
 using additional bands           40
 reciprocal scheme for non local part
 use partial core corrections
 calculate Harris-corrections to forces 
   (improved forces if not selfconsistent)
 use gradient corrections 
 use of overlap-Matrix (Vanderbilt PP)
 Gauss-broadening in eV      SIGMA  =   0.05


--------------------------------------------------------------------------------------------------------


  energy-cutoff  :      520.00
  volume of cell :      843.21
      direct lattice vectors                 reciprocal lattice vectors
     8.114564615  0.000000000  0.000000000     0.123235201  0.000000000  0.000000000
     0.000000000  8.114564615  0.000000000     0.000000000  0.123235201  0.000000000
     0.000000000  0.000000000 12.805746370     0.000000000  0.000000000  0.078089943

  length of vectors
     8.114564615  8.114564615 12.805746370     0.123235201  0.123235201  0.078089943


 
 k-points in units of 2pi/SCALE and weight: K-Spacing Value to Generate K-Mesh: 0.03
   0.00000000  0.00000000  0.00000000       0.021
   0.03188711  0.00000000  0.00000000       0.083
   0.06377422  0.00000000  0.00000000       0.042
   0.03188711  0.03188711  0.00000000       0.083
   0.06377422  0.03188711  0.00000000       0.083
   0.06377422  0.06377422  0.00000000       0.021
   0.00000000  0.00000000  0.02694103       0.042
   0.03188711  0.00000000  0.02694103       0.167
   0.06377422  0.00000000  0.02694103       0.083
   0.03188711  0.03188711  0.02694103       0.167
   0.06377422  0.03188711  0.02694103       0.167
   0.06377422  0.06377422  0.02694103       0.042
 
 k-points in reciprocal lattice and weights: K-Spacing Value to Generate K-Mesh: 0.03
   0.00000000  0.00000000  0.00000000       0.021
   0.25000000  0.00000000  0.00000000       0.083
   0.50000000  0.00000000  0.00000000       0.042
   0.25000000  0.25000000  0.00000000       0.083
   0.50000000  0.25000000  0.00000000       0.083
   0.50000000  0.50000000  0.00000000       0.021
   0.00000000  0.00000000  0.33333333       0.042
   0.25000000  0.00000000  0.33333333       0.167
   0.50000000  0.00000000  0.33333333       0.083
   0.25000000  0.25000000  0.33333333       0.167
   0.50000000  0.25000000  0.33333333       0.167
   0.50000000  0.50000000  0.33333333       0.042
 
 position of ions in fractional coordinates (direct lattice) 
   0.24847935  0.24847935  0.84918915
   0.75152065  0.24847935  0.84918915
   0.24847935  0.75152065  0.84918915
   0.75152065  0.75152065  0.84918915
   0.00000000  0.00000000  0.64992540
   0.50000000  0.00000000  0.65306606
   0.00000000  0.50000000  0.65306606
   0.50000000  0.50000000  0.65585736
   0.00000000  0.00000000  0.35007460
   0.50000000  0.00000000  0.34693394
   0.00000000  0.50000000  0.34693394
   0.50000000  0.50000000  0.34414264
   0.24847935  0.24847935  0.15081085
   0.75152065  0.24847935  0.15081085
   0.24847935  0.75152065  0.15081085
   0.75152065  0.75152065  0.15081085
   0.50000000  0.00000000  0.00000000
   0.00000000  0.50000000  0.00000000
   0.50000000  0.50000000  0.00000000
   0.24553148  0.24553148  0.50000000
   0.75446852  0.24553148  0.50000000
   0.24553148  0.75446852  0.50000000
   0.75446852  0.75446852  0.50000000
   0.00000000  0.25069316  0.75112474
   0.50000000  0.25069891  0.75104370
   0.00000000  0.74930684  0.75112474
   0.50000000  0.74930109  0.75104370
   0.25069316  0.00000000  0.75112474
   0.74930684  0.00000000  0.75112474
   0.25069891  0.50000000  0.75104370
   0.74930109  0.50000000  0.75104370
   0.25069316  0.00000000  0.24887526
   0.74930684  0.00000000  0.24887526
   0.25069891  0.50000000  0.24895630
   0.74930109  0.50000000  0.24895630
   0.00000000  0.25069316  0.24887526
   0.50000000  0.25069891  0.24895630
   0.00000000  0.74930684  0.24887526
   0.50000000  0.74930109  0.24895630
   0.00000000  0.00000000  0.00000000
 
 position of ions in cartesian coordinates  (Angst):
   2.01630175  2.01630175 10.87450094
   6.09826287  2.01630175 10.87450094
   2.01630175  6.09826287 10.87450094
   6.09826287  6.09826287 10.87450094
   0.00000000  0.00000000  8.32277979
   4.05728231  0.00000000  8.36299835
   0.00000000  4.05728231  8.36299835
   4.05728231  4.05728231  8.39874305
   0.00000000  0.00000000  4.48296658
   4.05728231  0.00000000  4.44274802
   0.00000000  4.05728231  4.44274802
   4.05728231  4.05728231  4.40700332
   2.01630175  2.01630175  1.93124543
   6.09826287  2.01630175  1.93124543
   2.01630175  6.09826287  1.93124543
   6.09826287  6.09826287  1.93124543
   4.05728231  0.00000000  0.00000000
   0.00000000  4.05728231  0.00000000
   4.05728231  4.05728231  0.00000000
   1.99238108  1.99238108  6.40287318
   6.12218354  1.99238108  6.40287318
   1.99238108  6.12218354  6.40287318
   6.12218354  6.12218354  6.40287318
   0.00000000  2.03426583  9.61871290
   4.05728231  2.03431248  9.61767515
   0.00000000  6.08029878  9.61871290
   4.05728231  6.08025214  9.61767515
   2.03426583  0.00000000  9.61871290
   6.08029878  0.00000000  9.61871290
   2.03431248  4.05728231  9.61767515
   6.08025214  4.05728231  9.61767515
   2.03426583  0.00000000  3.18703347
   6.08029878  0.00000000  3.18703347
   2.03431248  4.05728231  3.18807122
   6.08025214  4.05728231  3.18807122
   0.00000000  2.03426583  3.18703347
   4.05728231  2.03431248  3.18807122
   0.00000000  6.08029878  3.18703347
   4.05728231  6.08025214  3.18807122
   0.00000000  0.00000000  0.00000000
 


--------------------------------------------------------------------------------------------------------


 k-point     1 :   0.0000 0.0000 0.0000  plane waves:   22675
 k-point     2 :   0.2500 0.0000 0.0000  plane waves:   22682
 k-point     3 :   0.5000 0.0000 0.0000  plane waves:   22706
 k-point     4 :   0.2500 0.2500 0.0000  plane waves:   22681
 k-point     5 :   0.5000 0.2500 0.0000  plane waves:   22694
 k-point     6 :   0.5000 0.5000 0.0000  plane waves:   22764
 k-point     7 :   0.0000 0.0000 0.3333  plane waves:   22664
 k-point     8 :   0.2500 0.0000 0.3333  plane waves:   22696
 k-point     9 :   0.5000 0.0000 0.3333  plane waves:   22712
 k-point    10 :   0.2500 0.2500 0.3333  plane waves:   22714
 k-point    11 :   0.5000 0.2500 0.3333  plane waves:   22702
 k-point    12 :   0.5000 0.5000 0.3333  plane waves:   22740

 maximum and minimum number of plane-waves per node :      2556     2492

 maximum number of plane-waves:     22764
 maximum index in each direction: 
   IXMAX=   15   IYMAX=   15   IZMAX=   23
   IXMIN=  -15   IYMIN=  -15   IZMIN=  -24


 parallel 3D FFT for wavefunctions:
    minimum data exchange during FFTs selected (reduces bandwidth)
 parallel 3D FFT for charge:
    minimum data exchange during FFTs selected (reduces bandwidth)


 total amount of memory used by VASP MPI-rank0    99916. kBytes
=======================================================================

   base      :      30000. kBytes
   nonl-proj :      19302. kBytes
   fftplans  :      13009. kBytes
   grid      :       8308. kBytes
   one-center:         77. kBytes
   wavefun   :      29220. kBytes
 
     INWAV:  cpu time      0.0000: real time      0.0000
 Broyden mixing: mesh for mixing (old mesh)
   NGX = 31   NGY = 31   NGZ = 47
  (NGX  =120   NGY  =120   NGZ  =192)
  gives a total of  45167 points

 initial charge density was supplied:
 charge density of overlapping atoms calculated
 number of electron     384.0000000 magnetization 
 keeping initial charge density in first step


--------------------------------------------------------------------------------------------------------


 Maximum index for augmentation-charges         4741 (set IRDMAX)


--------------------------------------------------------------------------------------------------------


 First call to EWALD:  gamma=   0.188
 Maximum number of real-space cells 3x 3x 2
 Maximum number of reciprocal cells 2x 2x 4

    FEWALD:  cpu time      0.0035: real time      0.0035


--------------------------------------- Ionic step        1  -------------------------------------------




--------------------------------------- Iteration      1(   1)  ---------------------------------------


    POTLOK:  cpu time      0.1773: real time      0.1773
    SETDIJ:  cpu time      0.6026: real time      0.6029
     EDDAV:  cpu time     34.9304: real time     34.9346
       DOS:  cpu time      0.0057: real time      0.0059
    --------------------------------------------
      LOOP:  cpu time     35.7161: real time     35.7208

 eigenvalue-minimisations  :  5568
 total energy-change (2. order) : 0.5371756E+04  (-0.1768040E+05)
 number of electron     384.0000000 magnetization 
 augmentation part      384.0000000 magnetization 

 Free energy of the ion-electron system (eV)
  ---------------------------------------------------
  alpha Z        PSCENC =      1197.98996456
  Ewald energy   TEWEN  =    -27949.93358272
  -Hartree energ DENC   =    -12362.42355618
  -exchange      EXHF   =         0.00000000
  -V(xc)+E(xc)   XCENC  =      1226.04517129
  PAW double counting   =     34040.00696010   -33495.80632930
  entropy T*S    EENTRO =        -0.00316241
  eigenvalues    EBANDS =      2374.22868011
  atomic energy  EATOM  =     40341.65184589
  Solvation  Ediel_sol  =         0.00000000
  ---------------------------------------------------
  free energy    TOTEN  =      5371.75599136 eV

  energy without entropy =     5371.75915377  energy(sigma->0) =     5371.75757256


--------------------------------------------------------------------------------------------------------




--------------------------------------- Iteration      1(   2)  ---------------------------------------


     EDDAV:  cpu time     35.1356: real time     35.1442
       DOS:  cpu time      0.0014: real time      0.0015
    --------------------------------------------
      LOOP:  cpu time     35.1371: real time     35.1457

 eigenvalue-minimisations  :  5616
 total energy-change (2. order) :-0.4501565E+04  (-0.4365861E+04)
 number of electron     384.0000000 magnetization 
 augmentation part      384.0000000 magnetization 

 Free energy of the ion-electron system (eV)
  ---------------------------------------------------
  alpha Z        PSCENC =      1197.98996456
  Ewald energy   TEWEN  =    -27949.93358272
  -Hartree energ DENC   =    -12362.42355618
  -exchange      EXHF   =         0.00000000
  -V(xc)+E(xc)   XCENC  =      1226.04517129
  PAW double counting   =     34040.00696010   -33495.80632930
  entropy T*S    EENTRO =        -0.00780005
  eigenvalues    EBANDS =     -2127.33152969
  atomic energy  EATOM  =     40341.65184589
  Solvation  Ediel_sol  =         0.00000000
  ---------------------------------------------------
  free energy    TOTEN  =       870.19114392 eV

  energy without entropy =      870.19894397  energy(sigma->0) =      870.19504394


--------------------------------------------------------------------------------------------------------




--------------------------------------- Iteration      1(   3)  ---------------------------------------


     EDDAV:  cpu time     37.8792: real time     37.8893
       DOS:  cpu time      0.0010: real time      0.0011
    --------------------------------------------
      LOOP:  cpu time     37.8802: real time     37.8904

 eigenvalue-minimisations  :  6232
 total energy-change (2. order) :-0.9944260E+03  (-0.9295724E+03)
 number of electron     384.0000000 magnetization 
 augmentation part      384.0000000 magnetization 

 Free energy of the ion-electron system (eV)
  ---------------------------------------------------
  alpha Z        PSCENC =      1197.98996456
  Ewald energy   TEWEN  =    -27949.93358272
  -Hartree energ DENC   =    -12362.42355618
  -exchange      EXHF   =         0.00000000
  -V(xc)+E(xc)   XCENC  =      1226.04517129
  PAW double counting   =     34040.00696010   -33495.80632930
  entropy T*S    EENTRO =        -0.00000000
  eigenvalues    EBANDS =     -3121.76530095
  atomic energy  EATOM  =     40341.65184589
  Solvation  Ediel_sol  =         0.00000000
  ---------------------------------------------------
  free energy    TOTEN  =      -124.23482729 eV

  energy without entropy =     -124.23482729  energy(sigma->0) =     -124.23482729


--------------------------------------------------------------------------------------------------------




--------------------------------------- Iteration      1(   4)  ---------------------------------------


     EDDAV:  cpu time     39.1789: real time     39.1838
       DOS:  cpu time      0.0020: real time      0.0021
    --------------------------------------------
      LOOP:  cpu time     39.1809: real time     39.1860

 eigenvalue-minimisations  :  6528
 total energy-change (2. order) :-0.1133494E+03  (-0.1097367E+03)
 number of electron     384.0000000 magnetization 
 augmentation part      384.0000000 magnetization 

 Free energy of the ion-electron system (eV)
  ---------------------------------------------------
  alpha Z        PSCENC =      1197.98996456
  Ewald energy   TEWEN  =    -27949.93358272
  -Hartree energ DENC   =    -12362.42355618
  -exchange      EXHF   =         0.00000000
  -V(xc)+E(xc)   XCENC  =      1226.04517129
  PAW double counting   =     34040.00696010   -33495.80632930
  entropy T*S    EENTRO =        -0.00000000
  eigenvalues    EBANDS =     -3235.11465338
  atomic energy  EATOM  =     40341.65184589
  Solvation  Ediel_sol  =         0.00000000
  ---------------------------------------------------
  free energy    TOTEN  =      -237.58417972 eV

  energy without entropy =     -237.58417972  energy(sigma->0) =     -237.58417972


--------------------------------------------------------------------------------------------------------




--------------------------------------- Iteration      1(   5)  ---------------------------------------


     EDDAV:  cpu time     40.7462: real time     40.7571
       DOS:  cpu time      0.0017: real time      0.0019
    CHARGE:  cpu time      1.1839: real time      1.1842
    MIXING:  cpu time      0.0059: real time      0.0059
    --------------------------------------------
      LOOP:  cpu time     41.9378: real time     41.9491

 eigenvalue-minimisations  :  6880
 total energy-change (2. order) :-0.5814160E+01  (-0.5748952E+01)
 number of electron     384.0000010 magnetization 
 augmentation part       98.6278739 magnetization 

 Broyden mixing:
  rms(total) = 0.34464E+01    rms(broyden)= 0.34456E+01
  rms(prec ) = 0.43816E+01
  weight for this iteration     100.00

 Free energy of the ion-electron system (eV)
  ---------------------------------------------------
  alpha Z        PSCENC =      1197.98996456
  Ewald energy   TEWEN  =    -27949.93358272
  -Hartree energ DENC   =    -12362.42355618
  -exchange      EXHF   =         0.00000000
  -V(xc)+E(xc)   XCENC  =      1226.04517129
  PAW double counting   =     34040.00696010   -33495.80632930
  entropy T*S    EENTRO =        -0.00000000
  eigenvalues    EBANDS =     -3240.92881292
  atomic energy  EATOM  =     40341.65184589
  Solvation  Ediel_sol  =         0.00000000
  ---------------------------------------------------
  free energy    TOTEN  =      -243.39833926 eV

  energy without entropy =     -243.39833926  energy(sigma->0) =     -243.39833926


--------------------------------------------------------------------------------------------------------




--------------------------------------- Iteration      1(   6)  ---------------------------------------


    POTLOK:  cpu time      0.1751: real time      0.1752
    SETDIJ:  cpu time      0.6032: real time      0.6032
     EDDAV:  cpu time     43.6628: real time     43.6745
       DOS:  cpu time      0.0019: real time      0.0020
    CHARGE:  cpu time      1.2042: real time      1.2050
    MIXING:  cpu time      0.0085: real time      0.0085
    --------------------------------------------
      LOOP:  cpu time     45.6557: real time     45.6684

 eigenvalue-minimisations  :  7536
 total energy-change (2. order) : 0.3539740E+02  (-0.1615035E+02)
 number of electron     384.0000009 magnetization 
 augmentation part       94.9415339 magnetization 

 Broyden mixing:
  rms(total) = 0.15150E+01    rms(broyden)= 0.15128E+01
  rms(prec ) = 0.17999E+01
  weight for this iteration     100.00

 eigenvalues of (default mixing * dielectric matrix)
  average eigenvalue GAMMA=   0.7272
  0.7272

 Free energy of the ion-electron system (eV)
  ---------------------------------------------------
  alpha Z        PSCENC =      1197.98996456
  Ewald energy   TEWEN  =    -27949.93358272
  -Hartree energ DENC   =    -12601.72713653
  -exchange      EXHF   =         0.00000000
  -V(xc)+E(xc)   XCENC  =      1246.27286035
  PAW double counting   =     34418.90274405   -33826.76046898
  entropy T*S    EENTRO =        -0.00000000
  eigenvalues    EBANDS =     -3034.39716500
  atomic energy  EATOM  =     40341.65184589
  Solvation  Ediel_sol  =         0.00000000
  ---------------------------------------------------
  free energy    TOTEN  =      -208.00093838 eV

  energy without entropy =     -208.00093838  energy(sigma->0) =     -208.00093838


--------------------------------------------------------------------------------------------------------




--------------------------------------- Iteration      1(   7)  ---------------------------------------


    POTLOK:  cpu time      0.1753: real time      0.1754
    SETDIJ:  cpu time      0.5939: real time      0.5947
     EDDAV:  cpu time     37.7533: real time     37.7732
       DOS:  cpu time      0.0025: real time      0.0027
    CHARGE:  cpu time      1.2018: real time      1.2034
    MIXING:  cpu time      0.0092: real time      0.0092
    --------------------------------------------
      LOOP:  cpu time     39.7361: real time     39.7585

 eigenvalue-minimisations  :  6208
 total energy-change (2. order) : 0.9857261E+00  (-0.2898607E+01)
 number of electron     384.0000009 magnetization 
 augmentation part       95.0239938 magnetization 

 Broyden mixing:
  rms(total) = 0.78941E+00    rms(broyden)= 0.78941E+00
  rms(prec ) = 0.86347E+00
  weight for this iteration     100.00

 eigenvalues of (default mixing * dielectric matrix)
  average eigenvalue GAMMA=   1.1350
  0.9531  1.3169

 Free energy of the ion-electron system (eV)
  ---------------------------------------------------
  alpha Z        PSCENC =      1197.98996456
  Ewald energy   TEWEN  =    -27949.93358272
  -Hartree energ DENC   =    -12497.07997030
  -exchange      EXHF   =         0.00000000
  -V(xc)+E(xc)   XCENC  =      1241.88324265
  PAW double counting   =     34986.44963711   -34387.20794757
  entropy T*S    EENTRO =        -0.00152138
  eigenvalues    EBANDS =     -3140.76688055
  atomic energy  EATOM  =     40341.65184589
  Solvation  Ediel_sol  =         0.00000000
  ---------------------------------------------------
  free energy    TOTEN  =      -207.01521229 eV

  energy without entropy =     -207.01369092  energy(sigma->0) =     -207.01445161


--------------------------------------------------------------------------------------------------------




--------------------------------------- Iteration      1(   8)  ---------------------------------------


    POTLOK:  cpu time      0.1750: real time      0.1751
    SETDIJ:  cpu time      0.6031: real time      0.6033
     EDDAV:  cpu time     43.5037: real time     43.5029
       DOS:  cpu time      0.0027: real time      0.0028
    CHARGE:  cpu time      1.2015: real time      1.2018
    MIXING:  cpu time      0.0079: real time      0.0078
    --------------------------------------------
      LOOP:  cpu time     45.4939: real time     45.4938

 eigenvalue-minimisations  :  7496
 total energy-change (2. order) :-0.1557338E+00  (-0.5732235E+00)
 number of electron     384.0000009 magnetization 
 augmentation part       95.3277108 magnetization 

 Broyden mixing:
  rms(total) = 0.32895E+00    rms(broyden)= 0.32873E+00
  rms(prec ) = 0.38660E+00
  weight for this iteration     100.00

 eigenvalues of (default mixing * dielectric matrix)
  average eigenvalue GAMMA=   1.2863
  2.1438  0.8575  0.8575

 Free energy of the ion-electron system (eV)
  ---------------------------------------------------
  alpha Z        PSCENC =      1197.98996456
  Ewald energy   TEWEN  =    -27949.93358272
  -Hartree energ DENC   =    -12485.73517136
  -exchange      EXHF   =         0.00000000
  -V(xc)+E(xc)   XCENC  =      1241.04117907
  PAW double counting   =     35261.88298684   -34655.79914133
  entropy T*S    EENTRO =        -0.00227979
  eigenvalues    EBANDS =     -3158.26674725
  atomic energy  EATOM  =     40341.65184589
  Solvation  Ediel_sol  =         0.00000000
  ---------------------------------------------------
  free energy    TOTEN  =      -207.17094608 eV

  energy without entropy =     -207.16866629  energy(sigma->0) =     -207.16980619


--------------------------------------------------------------------------------------------------------




--------------------------------------- Iteration      1(   9)  ---------------------------------------


    POTLOK:  cpu time      0.1755: real time      0.1756
    SETDIJ:  cpu time      0.6035: real time      0.6040
     EDDAV:  cpu time     42.2690: real time     42.2874
       DOS:  cpu time      0.0019: real time      0.0020
    CHARGE:  cpu time      1.2050: real time      1.2051
    MIXING:  cpu time      0.0065: real time      0.0065
    --------------------------------------------
      LOOP:  cpu time     44.2612: real time     44.2806

 eigenvalue-minimisations  :  7224
 total energy-change (2. order) : 0.4496303E-01  (-0.5897855E-01)
 number of electron     384.0000009 magnetization 
 augmentation part       94.9876191 magnetization 

 Broyden mixing:
  rms(total) = 0.15478E+00    rms(broyden)= 0.15476E+00
  rms(prec ) = 0.18786E+00
  weight for this iteration     100.00

 eigenvalues of (default mixing * dielectric matrix)
  average eigenvalue GAMMA=   1.2807
  2.4387  0.8206  0.8206  1.0428

 Free energy of the ion-electron system (eV)
  ---------------------------------------------------
  alpha Z        PSCENC =      1197.98996456
  Ewald energy   TEWEN  =    -27949.93358272
  -Hartree energ DENC   =    -12507.49511513
  -exchange      EXHF   =         0.00000000
  -V(xc)+E(xc)   XCENC  =      1242.55751887
  PAW double counting   =     35560.50983245   -34948.60769000
  entropy T*S    EENTRO =        -0.00115615
  eigenvalues    EBANDS =     -3143.79760082
  atomic energy  EATOM  =     40341.65184589
  Solvation  Ediel_sol  =         0.00000000
  ---------------------------------------------------
  free energy    TOTEN  =      -207.12598305 eV

  energy without entropy =     -207.12482690  energy(sigma->0) =     -207.12540498


--------------------------------------------------------------------------------------------------------




--------------------------------------- Iteration      1(  10)  ---------------------------------------


    POTLOK:  cpu time      0.1759: real time      0.1760
    SETDIJ:  cpu time      0.6040: real time      0.6040
     EDDAV:  cpu time     41.7305: real time     41.7297
       DOS:  cpu time      0.0021: real time      0.0022
    CHARGE:  cpu time      1.2055: real time      1.2059
    MIXING:  cpu time      0.0069: real time      0.0069
    --------------------------------------------
      LOOP:  cpu time     43.7248: real time     43.7248

 eigenvalue-minimisations  :  7096
 total energy-change (2. order) : 0.1806269E-01  (-0.2023029E-01)
 number of electron     384.0000009 magnetization 
 augmentation part       95.0048860 magnetization 

 Broyden mixing:
  rms(total) = 0.43431E-01    rms(broyden)= 0.43397E-01
  rms(prec ) = 0.45219E-01
  weight for this iteration     100.00

 eigenvalues of (default mixing * dielectric matrix)
  average eigenvalue GAMMA=   1.1540
  2.3704  0.8224  0.8224  0.8775  0.8775

 Free energy of the ion-electron system (eV)
  ---------------------------------------------------
  alpha Z        PSCENC =      1197.98996456
  Ewald energy   TEWEN  =    -27949.93358272
  -Hartree energ DENC   =    -12497.90351566
  -exchange      EXHF   =         0.00000000
  -V(xc)+E(xc)   XCENC  =      1242.19480634
  PAW double counting   =     35635.10971347   -35022.68260813
  entropy T*S    EENTRO =        -0.00200064
  eigenvalues    EBANDS =     -3153.53254348
  atomic energy  EATOM  =     40341.65184589
  Solvation  Ediel_sol  =         0.00000000
  ---------------------------------------------------
  free energy    TOTEN  =      -207.10792036 eV

  energy without entropy =     -207.10591972  energy(sigma->0) =     -207.10692004


--------------------------------------------------------------------------------------------------------




--------------------------------------- Iteration      1(  11)  ---------------------------------------


    POTLOK:  cpu time      0.1759: real time      0.1765
    SETDIJ:  cpu time      0.5938: real time      0.5938
     EDDAV:  cpu time     44.1251: real time     44.1556
       DOS:  cpu time      0.0020: real time      0.0021
    CHARGE:  cpu time      1.2059: real time      1.2069
    MIXING:  cpu time      0.0067: real time      0.0067
    --------------------------------------------
      LOOP:  cpu time     46.1095: real time     46.1415

 eigenvalue-minimisations  :  7648
 total energy-change (2. order) :-0.2715484E-02  (-0.2407686E-02)
 number of electron     384.0000009 magnetization 
 augmentation part       95.0075086 magnetization 

 Broyden mixing:
  rms(total) = 0.34331E-01    rms(broyden)= 0.34327E-01
  rms(prec ) = 0.36507E-01
  weight for this iteration     100.00

 eigenvalues of (default mixing * dielectric matrix)
  average eigenvalue GAMMA=   1.3475
  2.2644  1.5228  1.5228  0.8232  0.8232  1.1286

 Free energy of the ion-electron system (eV)
  ---------------------------------------------------
  alpha Z        PSCENC =      1197.98996456
  Ewald energy   TEWEN  =    -27949.93358272
  -Hartree energ DENC   =    -12498.07486538
  -exchange      EXHF   =         0.00000000
  -V(xc)+E(xc)   XCENC  =      1242.21826894
  PAW double counting   =     35609.30618256   -34997.42430276
  entropy T*S    EENTRO =        -0.00196115
  eigenvalues    EBANDS =     -3152.84218579
  atomic energy  EATOM  =     40341.65184589
  Solvation  Ediel_sol  =         0.00000000
  ---------------------------------------------------
  free energy    TOTEN  =      -207.11063584 eV

  energy without entropy =     -207.10867469  energy(sigma->0) =     -207.10965527


--------------------------------------------------------------------------------------------------------




--------------------------------------- Iteration      1(  12)  ---------------------------------------


    POTLOK:  cpu time      0.1759: real time      0.1761
    SETDIJ:  cpu time      0.6061: real time      0.6061
     EDDAV:  cpu time     41.6684: real time     41.6679
       DOS:  cpu time      0.0032: real time      0.0033
    CHARGE:  cpu time      1.2056: real time      1.2057
    MIXING:  cpu time      0.0067: real time      0.0067
    --------------------------------------------
      LOOP:  cpu time     43.6660: real time     43.6658

 eigenvalue-minimisations  :  7096
 total energy-change (2. order) :-0.1475419E-02  (-0.6688712E-03)
 number of electron     384.0000009 magnetization 
 augmentation part       94.9769964 magnetization 

 Broyden mixing:
  rms(total) = 0.15286E-01    rms(broyden)= 0.15281E-01
  rms(prec ) = 0.18247E-01
  weight for this iteration     100.00

 eigenvalues of (default mixing * dielectric matrix)
  average eigenvalue GAMMA=   1.3707
  2.4928  2.4928  0.8049  0.8049  1.0623  1.0623  0.8746

 Free energy of the ion-electron system (eV)
  ---------------------------------------------------
  alpha Z        PSCENC =      1197.98996456
  Ewald energy   TEWEN  =    -27949.93358272
  -Hartree energ DENC   =    -12498.84624754
  -exchange      EXHF   =         0.00000000
  -V(xc)+E(xc)   XCENC  =      1242.30948276
  PAW double counting   =     35583.41898005   -34972.34023646
  entropy T*S    EENTRO =        -0.00188924
  eigenvalues    EBANDS =     -3151.36042858
  atomic energy  EATOM  =     40341.65184589
  Solvation  Ediel_sol  =         0.00000000
  ---------------------------------------------------
  free energy    TOTEN  =      -207.11211126 eV

  energy without entropy =     -207.11022202  energy(sigma->0) =     -207.11116664


--------------------------------------------------------------------------------------------------------




--------------------------------------- Iteration      1(  13)  ---------------------------------------


    POTLOK:  cpu time      0.1746: real time      0.1749
    SETDIJ:  cpu time      0.6033: real time      0.6038
     EDDAV:  cpu time     38.6372: real time     38.6629
       DOS:  cpu time      0.0021: real time      0.0024
    CHARGE:  cpu time      1.2001: real time      1.2019
    MIXING:  cpu time      0.0091: real time      0.0091
    --------------------------------------------
      LOOP:  cpu time     40.6265: real time     40.6549

 eigenvalue-minimisations  :  6416
 total energy-change (2. order) :-0.1046782E-03  (-0.6362775E-04)
 number of electron     384.0000009 magnetization 
 augmentation part       94.9740495 magnetization 

 Broyden mixing:
  rms(total) = 0.10741E-01    rms(broyden)= 0.10741E-01
  rms(prec ) = 0.12511E-01
  weight for this iteration     100.00

 eigenvalues of (default mixing * dielectric matrix)
  average eigenvalue GAMMA=   1.3436
  2.7592  2.4001  1.0700  1.0700  0.9000  0.9000  0.8246  0.8246

 Free energy of the ion-electron system (eV)
  ---------------------------------------------------
  alpha Z        PSCENC =      1197.98996456
  Ewald energy   TEWEN  =    -27949.93358272
  -Hartree energ DENC   =    -12498.48443969
  -exchange      EXHF   =         0.00000000
  -V(xc)+E(xc)   XCENC  =      1242.30936553
  PAW double counting   =     35569.07592499   -34958.35959807
  entropy T*S    EENTRO =        -0.00189510
  eigenvalues    EBANDS =     -3151.35980133
  atomic energy  EATOM  =     40341.65184589
  Solvation  Ediel_sol  =         0.00000000
  ---------------------------------------------------
  free energy    TOTEN  =      -207.11221594 eV

  energy without entropy =     -207.11032084  energy(sigma->0) =     -207.11126839


--------------------------------------------------------------------------------------------------------




--------------------------------------- Iteration      1(  14)  ---------------------------------------


    POTLOK:  cpu time      0.1741: real time      0.1744
    SETDIJ:  cpu time      0.6045: real time      0.6048
     EDDAV:  cpu time     40.9446: real time     40.9485
       DOS:  cpu time      0.0021: real time      0.0021
    CHARGE:  cpu time      1.2023: real time      1.2028
    MIXING:  cpu time      0.0065: real time      0.0065
    --------------------------------------------
      LOOP:  cpu time     42.9341: real time     42.9392

 eigenvalue-minimisations  :  6928
 total energy-change (2. order) : 0.1067035E-03  (-0.4168361E-04)
 number of electron     384.0000009 magnetization 
 augmentation part       94.9773613 magnetization 

 Broyden mixing:
  rms(total) = 0.50103E-02    rms(broyden)= 0.50087E-02
  rms(prec ) = 0.57386E-02
  weight for this iteration     100.00

 eigenvalues of (default mixing * dielectric matrix)
  average eigenvalue GAMMA=   1.2726
  2.7174  2.3612  1.0821  1.0821  0.8491  0.8491  0.8903  0.8108  0.8108

 Free energy of the ion-electron system (eV)
  ---------------------------------------------------
  alpha Z        PSCENC =      1197.98996456
  Ewald energy   TEWEN  =    -27949.93358272
  -Hartree energ DENC   =    -12498.20506574
  -exchange      EXHF   =         0.00000000
  -V(xc)+E(xc)   XCENC  =      1242.29227987
  PAW double counting   =     35566.40143727   -34955.69879890
  entropy T*S    EENTRO =        -0.00191066
  eigenvalues    EBANDS =     -3151.60827882
  atomic energy  EATOM  =     40341.65184589
  Solvation  Ediel_sol  =         0.00000000
  ---------------------------------------------------
  free energy    TOTEN  =      -207.11210924 eV

  energy without entropy =     -207.11019858  energy(sigma->0) =     -207.11115391


--------------------------------------------------------------------------------------------------------




--------------------------------------- Iteration      1(  15)  ---------------------------------------


    POTLOK:  cpu time      0.1756: real time      0.1757
    SETDIJ:  cpu time      0.6030: real time      0.6036
     EDDAV:  cpu time     44.4211: real time     44.4610
       DOS:  cpu time      0.0019: real time      0.0021
    CHARGE:  cpu time      1.1997: real time      1.2009
    MIXING:  cpu time      0.0090: real time      0.0090
    --------------------------------------------
      LOOP:  cpu time     46.4104: real time     46.4522

 eigenvalue-minimisations  :  7720
 total energy-change (2. order) : 0.1696167E-04  (-0.9429834E-05)
 number of electron     384.0000009 magnetization 
 augmentation part       94.9801462 magnetization 

 Broyden mixing:
  rms(total) = 0.24402E-02    rms(broyden)= 0.24393E-02
  rms(prec ) = 0.27326E-02
  weight for this iteration     100.00

 eigenvalues of (default mixing * dielectric matrix)
  average eigenvalue GAMMA=   1.2978
  2.6768  2.2400  1.3734  1.3734  1.0227  1.0227  0.8176  0.8176  0.8171  0.8171

 Free energy of the ion-electron system (eV)
  ---------------------------------------------------
  alpha Z        PSCENC =      1197.98996456
  Ewald energy   TEWEN  =    -27949.93358272
  -Hartree energ DENC   =    -12498.12636377
  -exchange      EXHF   =         0.00000000
  -V(xc)+E(xc)   XCENC  =      1242.28529761
  PAW double counting   =     35565.87106326   -34955.15291063
  entropy T*S    EENTRO =        -0.00191639
  eigenvalues    EBANDS =     -3151.69549009
  atomic energy  EATOM  =     40341.65184589
  Solvation  Ediel_sol  =         0.00000000
  ---------------------------------------------------
  free energy    TOTEN  =      -207.11209228 eV

  energy without entropy =     -207.11017588  energy(sigma->0) =     -207.11113408


--------------------------------------------------------------------------------------------------------




--------------------------------------- Iteration      1(  16)  ---------------------------------------


    POTLOK:  cpu time      0.1745: real time      0.1749
    SETDIJ:  cpu time      0.6055: real time      0.6069
     EDDAV:  cpu time     40.3499: real time     40.3919
       DOS:  cpu time      0.0021: real time      0.0023
    CHARGE:  cpu time      1.1986: real time      1.1999
    MIXING:  cpu time      0.0082: real time      0.0082
    --------------------------------------------
      LOOP:  cpu time     42.3388: real time     42.3840

 eigenvalue-minimisations  :  6800
 total energy-change (2. order) : 0.5261883E-05  (-0.1661839E-05)
 number of electron     384.0000009 magnetization 
 augmentation part       94.9814173 magnetization 

 Broyden mixing:
  rms(total) = 0.79735E-03    rms(broyden)= 0.79666E-03
  rms(prec ) = 0.89149E-03
  weight for this iteration     100.00

 eigenvalues of (default mixing * dielectric matrix)
  average eigenvalue GAMMA=   1.3708
  2.8677  2.5498  1.7019  1.7019  1.0340  1.0340  0.9073  0.8175  0.8175  0.8238
  0.8238

 Free energy of the ion-electron system (eV)
  ---------------------------------------------------
  alpha Z        PSCENC =      1197.98996456
  Ewald energy   TEWEN  =    -27949.93358272
  -Hartree energ DENC   =    -12498.05666753
  -exchange      EXHF   =         0.00000000
  -V(xc)+E(xc)   XCENC  =      1242.28076908
  PAW double counting   =     35565.58978149   -34954.85223688
  entropy T*S    EENTRO =        -0.00192237
  eigenvalues    EBANDS =     -3151.78003855
  atomic energy  EATOM  =     40341.65184589
  Solvation  Ediel_sol  =         0.00000000
  ---------------------------------------------------
  free energy    TOTEN  =      -207.11208701 eV

  energy without entropy =     -207.11016465  energy(sigma->0) =     -207.11112583


--------------------------------------------------------------------------------------------------------




--------------------------------------- Iteration      1(  17)  ---------------------------------------


    POTLOK:  cpu time      0.1738: real time      0.1747
    SETDIJ:  cpu time      0.6024: real time      0.6028
[...]
    168       3.0971      2.00000
    169       3.8603      2.00000
    170       3.9218      2.00000
    171       3.9218      2.00000
    172       3.9322      2.00000
    173       4.0107      2.00000
    174       4.0418      2.00000
    175       4.0418      2.00000
    176       4.0692      2.00000
    177       4.0692      2.00000
    178       4.0824      2.00000
    179       4.0855      2.00000
    180       4.1012      2.00000
    181       4.4080      2.00000
    182       4.4103      2.00000
    183       4.4103      2.00000
    184       4.4469      2.00000
    185       4.6843      2.00000
    186       4.7018      2.00000
    187       4.7018      2.00000
    188       4.7159      2.00000
    189       4.7751      2.00000
    190       4.7912      2.00000
    191       4.7912      2.00000
    192       4.8141      2.00000
    193       6.6771      0.00000
    194       6.6911      0.00000
    195       6.6911      0.00000
    196       6.7133      0.00000
    197       7.3297      0.00000
    198       7.3536      0.00000
    199       7.3536      0.00000
    200       7.3719      0.00000
    201       7.9655      0.00000
    202       7.9980      0.00000
    203       7.9980      0.00000
    204       8.0067      0.00000
    205       8.1437      0.00000
    206       8.1437      0.00000
    207       8.1748      0.00000
    208       8.1766      0.00000
    209       8.2637      0.00000
    210       8.2701      0.00000
    211       8.2973      0.00000
    212       8.2973      0.00000
    213       8.3129      0.00000
    214       8.3129      0.00000
    215       8.3157      0.00000
    216       8.3505      0.00000
    217       8.9053      0.00000
    218       8.9053      0.00000
    219       8.9158      0.00000
    220       8.9194      0.00000
    221       9.0577      0.00000
    222       9.0677      0.00000
    223       9.0677      0.00000
    224       9.1018      0.00000
    225       9.6258      0.00000
    226       9.6258      0.00000
    227       9.6682      0.00000
    228       9.6958      0.00000
    229       9.7121      0.00000
    230       9.7598      0.00000
    231       9.7651      0.00000
    232       9.7849      0.00000


--------------------------------------------------------------------------------------------------------


 soft charge-density along one line, spin component           1
         0         1         2         3         4         5         6         7         8         9
 total charge-density along one line
 
 pseudopotential strength for first ion, spin component:           1
-18.639   0.002   0.001   0.002   0.000   4.517  -0.001  -0.000
  0.002 -18.630   0.001  -0.001  -0.002  -0.001   4.514  -0.001
  0.001   0.001 -18.651   0.001  -0.000  -0.000  -0.001   4.526
  0.002  -0.001   0.001 -18.630   0.002  -0.001   0.000  -0.001
  0.000  -0.002  -0.000   0.002 -18.620  -0.000   0.001   0.000
  4.517  -0.001  -0.000  -0.001  -0.000   5.529   0.000   0.000
 -0.001   4.514  -0.001   0.000   0.001   0.000   5.529   0.000
 -0.000  -0.001   4.526  -0.001   0.000   0.000   0.000   5.528
 -0.001   0.000  -0.001   4.514  -0.001   0.000  -0.000   0.000
 -0.000   0.001   0.000  -0.001   4.507  -0.000  -0.001  -0.000
 -0.000   0.000   0.004   0.000  -0.000   0.000  -0.001   0.005
  0.000  -0.000  -0.005  -0.000  -0.000  -0.000   0.001  -0.007
  0.000  -0.016   0.000  -0.000   0.000  -0.000   0.003   0.000
 -0.000   0.000  -0.018   0.000   0.000  -0.000   0.000   0.002
  0.000  -0.000   0.000  -0.016  -0.000  -0.000  -0.000   0.000
  0.000  -0.026   0.000  -0.000   0.000  -0.000   0.002   0.000
 -0.000  -0.000  -0.028  -0.000   0.000  -0.000   0.000  -0.001
  0.000  -0.000   0.000  -0.026  -0.000  -0.000  -0.000   0.000
 total augmentation occupancy for first ion, spin component:           1
  1.998   0.000   0.000   0.000   0.000  -0.007   0.000   0.000   0.000   0.000  -0.000  -0.000   0.000  -0.000   0.000  -0.000
  0.000   1.997  -0.000  -0.000   0.000   0.000  -0.008  -0.000  -0.000   0.000   0.000   0.000   0.032   0.000  -0.000  -0.011
  0.000  -0.000   1.999  -0.000   0.000   0.000  -0.000  -0.005  -0.000  -0.000   0.001   0.000   0.000   0.028   0.000   0.000
  0.000  -0.000  -0.000   1.997  -0.000   0.000  -0.000  -0.000  -0.008  -0.000   0.000   0.000  -0.000   0.000   0.032   0.000
  0.000   0.000   0.000  -0.000   1.997   0.000   0.000  -0.000  -0.000  -0.010   0.000   0.000  -0.000   0.000   0.000  -0.000
 -0.007   0.000   0.000   0.000   0.000   0.016   0.000   0.000   0.000   0.000  -0.000  -0.000   0.002  -0.001   0.002  -0.000
  0.000  -0.008  -0.000  -0.000   0.000   0.000   0.035   0.000  -0.000  -0.001  -0.000   0.001  -0.075  -0.001  -0.001   0.010
  0.000  -0.000  -0.005  -0.000  -0.000   0.000   0.000   0.013   0.000   0.000   0.012  -0.005   0.000   0.010   0.000  -0.000
  0.000  -0.000  -0.000  -0.008  -0.000   0.000  -0.000   0.000   0.035   0.001  -0.000   0.001  -0.001  -0.001  -0.075   0.000
  0.000   0.000  -0.000  -0.000  -0.010   0.000  -0.001   0.000   0.001   0.046   0.000  -0.000   0.003   0.000  -0.003  -0.000
 -0.000   0.000   0.001   0.000   0.000  -0.000  -0.000   0.012  -0.000   0.000   2.043  -0.032   0.001   0.154   0.001   0.000
 -0.000   0.000   0.000   0.000   0.000  -0.000   0.001  -0.005   0.001  -0.000  -0.032   0.026  -0.000  -0.069  -0.000   0.000
  0.000   0.032   0.000  -0.000  -0.000   0.002  -0.075   0.000  -0.001   0.003   0.001  -0.000   0.825   0.010  -0.005  -0.067
 -0.000   0.000   0.028   0.000   0.000  -0.001  -0.001   0.010  -0.001   0.000   0.154  -0.069   0.010   0.876   0.010  -0.001
  0.000  -0.000   0.000   0.032   0.000   0.002  -0.001   0.000  -0.075  -0.003   0.001  -0.000  -0.005   0.010   0.825   0.000
 -0.000  -0.011   0.000   0.000  -0.000  -0.000   0.010  -0.000   0.000  -0.000   0.000   0.000  -0.067  -0.001   0.000   0.007
  0.000   0.000  -0.018   0.000  -0.000   0.000   0.000  -0.000   0.000  -0.000  -0.012   0.007  -0.001  -0.064  -0.001   0.000
 -0.000   0.000   0.000  -0.011   0.000  -0.000   0.000  -0.000   0.010   0.000   0.000   0.000   0.000  -0.001  -0.067  -0.000


------------------------ aborting loop because EDIFF is reached ----------------------------------------


    CHARGE:  cpu time      1.2043: real time      1.2046
    FORLOC:  cpu time      0.0160: real time      0.0160
    FORNL :  cpu time      5.9021: real time      5.9049
    STRESS:  cpu time     19.9529: real time     19.9558
    FORCOR:  cpu time      0.1783: real time      0.1785
    FORHAR:  cpu time      0.0584: real time      0.0586
    MIXING:  cpu time      0.0050: real time      0.0050
    OFIELD:  cpu time      0.0001: real time      0.0001

  FORCE on cell =-STRESS in cart. coord.  units (eV):
  Direction    XX          YY          ZZ          XY          YZ          ZX
  --------------------------------------------------------------------------------------
  Alpha Z  1197.98996  1197.98996  1197.98996
  Ewald   -7013.44712 -7013.44712-13923.16372    -0.00000    -0.00000     0.00000
  Hartree  6136.05187  6136.05187   225.92559    -0.00000    -0.00000    -0.00000
  E(xc)   -1817.79488 -1817.79488 -1820.18446    -0.00000     0.00000    -0.00000
  Local   -7181.28253 -7181.28253  5639.23182     0.00000     0.00000    -0.00000
  n-local  1561.11798  1571.15382  1565.94313     0.22105    -0.05788     0.07783
  augment  2176.16056  2176.16056  2161.74405    -0.00000     0.00000     0.00000
  Kinetic  4894.71340  4904.68096  4925.51881    -3.04858     0.41428    -0.43885
  Fock        0.00000     0.00000     0.00000     0.00000     0.00000     0.00000
  -------------------------------------------------------------------------------------
  Total     -36.48906   -36.48906   -26.99482     0.00000     0.00000     0.00000
  in kB     -69.33266   -69.33266   -51.29271     0.00000     0.00000     0.00000
  external pressure =      -63.32 kB  Pullay stress =        0.00 kB


 VOLUME and BASIS-vectors are now :
 -----------------------------------------------------------------------------
  energy-cutoff  :      520.00
  volume of cell :      843.21
      direct lattice vectors                 reciprocal lattice vectors
     8.114564615  0.000000000  0.000000000     0.123235201  0.000000000  0.000000000
     0.000000000  8.114564615  0.000000000     0.000000000  0.123235201  0.000000000
     0.000000000  0.000000000 12.805746370     0.000000000  0.000000000  0.078089943

  length of vectors
     8.114564615  8.114564615 12.805746370     0.123235201  0.123235201  0.078089943


 FORCES acting on ions
    electron-ion (+dipol)            ewald-force                    non-local-force                 convergence-correction
 -----------------------------------------------------------------------------------------------
   -.594E+01 -.594E+01 -.453E+03   0.598E+01 0.598E+01 0.463E+03   -.369E-01 -.369E-01 -.100E+02   0.298E-06 0.298E-06 0.803E-06
   0.594E+01 -.594E+01 -.453E+03   -.598E+01 0.598E+01 0.463E+03   0.369E-01 -.369E-01 -.100E+02   -.298E-06 0.298E-06 0.803E-06
   -.594E+01 0.594E+01 -.453E+03   0.598E+01 -.598E+01 0.463E+03   -.369E-01 0.369E-01 -.100E+02   0.298E-06 -.298E-06 0.803E-06
   0.594E+01 0.594E+01 -.453E+03   -.598E+01 -.598E+01 0.463E+03   0.369E-01 0.369E-01 -.100E+02   -.298E-06 -.298E-06 0.803E-06
   -.560E-13 0.656E-12 0.467E+03   0.142E-13 0.568E-13 -.475E+03   0.121E-18 -.198E-18 0.858E+01   0.846E-12 0.399E-12 0.817E-06
   0.745E-12 -.235E-11 0.487E+03   0.284E-13 -.835E-13 -.497E+03   0.592E-18 0.539E-18 0.994E+01   -.118E-11 0.825E-12 -.312E-05
   0.415E-14 -.214E-11 0.487E+03   -.142E-12 0.568E-13 -.497E+03   0.781E-18 -.192E-19 0.994E+01   0.466E-11 -.641E-12 -.312E-05
   0.795E-12 0.863E-11 0.504E+03   -.995E-13 0.178E-13 -.515E+03   -.121E-18 0.699E-18 0.111E+02   -.493E-11 -.121E-11 -.567E-05
   0.228E-13 -.820E-12 -.467E+03   -.711E-13 -.568E-13 0.475E+03   -.166E-18 0.168E-18 -.858E+01   -.890E-11 -.266E-11 -.817E-06
   0.809E-12 0.241E-11 -.487E+03   -.568E-13 0.320E-13 0.497E+03   0.712E-18 0.543E-19 -.994E+01   0.851E-11 -.401E-11 0.312E-05
   -.110E-13 0.383E-11 -.487E+03   0.000E+00 -.853E-13 0.497E+03   -.774E-18 -.490E-19 -.994E+01   -.697E-11 0.210E-11 0.312E-05
   0.836E-12 0.125E-11 -.504E+03   0.568E-13 0.711E-14 0.515E+03   0.917E-19 -.699E-18 -.111E+02   0.668E-11 0.342E-11 0.567E-05
   -.594E+01 -.594E+01 0.453E+03   0.598E+01 0.598E+01 -.463E+03   -.369E-01 -.369E-01 0.100E+02   0.298E-06 0.298E-06 -.803E-06
   0.594E+01 -.594E+01 0.453E+03   -.598E+01 0.598E+01 -.463E+03   0.369E-01 -.369E-01 0.100E+02   -.298E-06 0.298E-06 -.803E-06
   -.594E+01 0.594E+01 0.453E+03   0.598E+01 -.598E+01 -.463E+03   -.369E-01 0.369E-01 0.100E+02   0.298E-06 -.298E-06 -.803E-06
   0.594E+01 0.594E+01 0.453E+03   -.598E+01 -.598E+01 -.463E+03   0.369E-01 0.369E-01 0.100E+02   -.298E-06 -.298E-06 -.803E-06
   0.473E-13 0.376E-13 -.207E-12   -.284E-13 0.284E-13 0.474E-11   0.647E-27 0.559E-26 -.356E-25   -.130E-11 -.797E-12 0.755E-11
   0.159E-13 0.469E-13 -.569E-12   0.284E-13 0.000E+00 0.474E-11   -.865E-26 -.205E-26 0.165E-25   0.197E-11 -.146E-12 0.631E-11
   0.473E-13 -.631E-12 -.112E-12   0.000E+00 -.426E-13 0.792E-11   0.541E-26 -.479E-26 0.347E-25   -.196E-11 0.667E-12 0.669E-11
   -.107E+02 -.107E+02 -.957E-07   0.107E+02 0.107E+02 0.468E-13   -.469E-01 -.469E-01 -.111E-19   0.106E-05 0.106E-05 -.419E-11
   0.107E+02 -.107E+02 -.118E-10   -.107E+02 0.107E+02 0.575E-13   0.469E-01 -.469E-01 -.151E-19   -.106E-05 0.106E-05 -.762E-11
   -.107E+02 0.107E+02 -.130E-11   0.107E+02 -.107E+02 0.397E-13   -.469E-01 0.469E-01 0.118E-19   0.106E-05 -.106E-05 -.474E-11
   0.107E+02 0.107E+02 0.956E-07   -.107E+02 -.107E+02 0.468E-13   0.469E-01 0.469E-01 -.866E-20   -.106E-05 -.106E-05 -.997E-11
   0.342E-13 0.190E+01 0.855E+01   -.128E-12 -.244E+01 -.903E+01   -.200E-19 0.548E+00 0.480E+00   0.345E-11 -.154E-05 -.175E-05
   0.286E-12 0.171E+01 0.527E+01   -.426E-13 -.221E+01 -.478E+01   0.256E-18 0.500E+00 -.495E+00   -.347E-11 -.143E-05 -.989E-06
   0.393E-13 -.190E+01 0.855E+01   -.128E-12 0.244E+01 -.903E+01   0.420E-19 -.548E+00 0.480E+00   0.360E-11 0.154E-05 -.175E-05
   0.293E-12 -.171E+01 0.527E+01   -.426E-13 0.221E+01 -.478E+01   -.204E-18 -.500E+00 -.495E+00   -.365E-11 0.143E-05 -.989E-06
   0.190E+01 -.571E-12 0.855E+01   -.244E+01 -.213E-13 -.903E+01   0.548E+00 0.683E-19 0.480E+00   -.154E-05 0.931E-12 -.175E-05
   -.190E+01 0.165E-12 0.855E+01   0.244E+01 -.426E-13 -.903E+01   -.548E+00 -.164E-18 0.480E+00   0.154E-05 -.775E-12 -.175E-05
   0.171E+01 -.150E-11 0.527E+01   -.221E+01 -.178E-13 -.478E+01   0.500E+00 0.203E-18 -.495E+00   -.143E-05 0.139E-12 -.989E-06
   -.171E+01 0.456E-11 0.527E+01   0.221E+01 -.284E-13 -.478E+01   -.500E+00 -.117E-18 -.495E+00   0.143E-05 -.967E-12 -.989E-06
   0.190E+01 -.496E-16 -.855E+01   -.244E+01 -.178E-13 0.903E+01   0.548E+00 -.261E-18 -.480E+00   -.154E-05 -.392E-12 0.175E-05
   -.190E+01 0.648E-12 -.855E+01   0.244E+01 -.284E-13 0.903E+01   -.548E+00 -.929E-19 -.480E+00   0.154E-05 -.343E-11 0.175E-05
   0.171E+01 -.790E-12 -.527E+01   -.221E+01 -.497E-13 0.478E+01   0.500E+00 0.221E-18 0.495E+00   -.143E-05 0.114E-11 0.989E-06
   -.171E+01 0.198E-11 -.527E+01   0.221E+01 -.284E-13 0.478E+01   -.500E+00 -.206E-18 0.495E+00   0.143E-05 0.169E-11 0.989E-06
   0.975E-13 0.190E+01 -.855E+01   -.853E-13 -.244E+01 0.903E+01   0.162E-18 0.548E+00 -.480E+00   -.121E-11 -.154E-05 0.175E-05
   0.328E-12 0.171E+01 -.527E+01   0.142E-13 -.221E+01 0.478E+01   -.201E-18 0.500E+00 0.495E+00   0.110E-11 -.143E-05 0.989E-06
   0.836E-13 -.190E+01 -.855E+01   -.128E-12 0.244E+01 0.903E+01   -.826E-19 -.548E+00 -.480E+00   -.315E-11 0.154E-05 0.175E-05
   0.347E-12 -.171E+01 -.527E+01   0.000E+00 0.221E+01 0.478E+01   -.258E-18 -.500E+00 0.495E+00   0.302E-11 0.143E-05 0.989E-06
   0.155E-13 0.160E-13 -.134E-11   0.000E+00 -.142E-13 0.772E-11   0.370E-25 0.251E-26 0.610E-25   0.133E-11 0.875E-13 0.617E-11
 -----------------------------------------------------------------------------------------------
   0.207E-10 0.114E-10 -.248E-10   0.114E-12 0.462E-13 0.142E-12   0.111E-15 0.555E-16 0.172E-14   -.106E-11 -.882E-12 -.766E-11
 
 
 POSITION                                       TOTAL-FORCE (eV/Angst)
 -----------------------------------------------------------------------------------
      2.01630      2.01630     10.87450         0.000011      0.000011     -0.000009
      6.09826      2.01630     10.87450        -0.000011      0.000011     -0.000009
      2.01630      6.09826     10.87450         0.000011     -0.000011     -0.000009
      6.09826      6.09826     10.87450        -0.000011     -0.000011     -0.000009
      0.00000      0.00000      8.32278         0.000000     -0.000000      0.000061
      4.05728      0.00000      8.36300        -0.000000     -0.000000     -0.000021
      0.00000      4.05728      8.36300        -0.000000     -0.000000     -0.000021
      4.05728      4.05728      8.39874        -0.000000     -0.000000     -0.000076
      0.00000      0.00000      4.48297        -0.000000     -0.000000     -0.000061
      4.05728      0.00000      4.44275         0.000000     -0.000000      0.000021
      0.00000      4.05728      4.44275         0.000000     -0.000000      0.000021
      4.05728      4.05728      4.40701         0.000000     -0.000000      0.000076
      2.01630      2.01630      1.93124         0.000011      0.000011      0.000009
      6.09826      2.01630      1.93124        -0.000011      0.000011      0.000009
      2.01630      6.09826      1.93124         0.000011     -0.000011      0.000009
      6.09826      6.09826      1.93124        -0.000011     -0.000011      0.000009
      4.05728      0.00000      0.00000        -0.000000     -0.000000      0.000000
      0.00000      4.05728      0.00000         0.000000     -0.000000      0.000000
      4.05728      4.05728      0.00000        -0.000000     -0.000000      0.000000
      1.99238      1.99238      6.40287         0.000026      0.000026      0.000000
      6.12218      1.99238      6.40287        -0.000026      0.000026      0.000000
      1.99238      6.12218      6.40287         0.000026     -0.000026      0.000000
      6.12218      6.12218      6.40287        -0.000026     -0.000026      0.000000
      0.00000      2.03427      9.61871         0.000000     -0.000007     -0.000011
      4.05728      2.03431      9.61768         0.000000     -0.000006     -0.000003
      0.00000      6.08030      9.61871        -0.000000      0.000007     -0.000011
      4.05728      6.08025      9.61768         0.000000      0.000006     -0.000003
      2.03427      0.00000      9.61871        -0.000007     -0.000000     -0.000011
      6.08030      0.00000      9.61871         0.000007     -0.000000     -0.000011
      2.03431      4.05728      9.61768        -0.000006     -0.000000     -0.000003
      6.08025      4.05728      9.61768         0.000006     -0.000000     -0.000003
      2.03427      0.00000      3.18703        -0.000007     -0.000000      0.000011
      6.08030      0.00000      3.18703         0.000007     -0.000000      0.000011
      2.03431      4.05728      3.18807        -0.000006     -0.000000      0.000003
      6.08025      4.05728      3.18807         0.000006     -0.000000      0.000003
      0.00000      2.03427      3.18703         0.000000     -0.000007      0.000011
      4.05728      2.03431      3.18807         0.000000     -0.000006      0.000003
      0.00000      6.08030      3.18703        -0.000000      0.000007      0.000011
      4.05728      6.08025      3.18807        -0.000000      0.000006      0.000003
      0.00000      0.00000      0.00000         0.000000     -0.000000      0.000000
 -----------------------------------------------------------------------------------
    total drift:                                0.000000      0.000000     -0.000000


--------------------------------------------------------------------------------------------------------



  FREE ENERGIE OF THE ION-ELECTRON SYSTEM (eV)
  ---------------------------------------------------
  free  energy   TOTEN  =      -207.11208640 eV

  energy  without entropy=     -207.11016373  energy(sigma->0) =     -207.11112507
 
 d Force = 0.1034438E-09[-0.112E-09, 0.319E-09]  d Energy = 0.1270564E-08-0.117E-08
 d Force =-0.2469655E-02[-0.247E-02,-0.247E-02]  d Ewald  =-0.2469655E-02 0.193E-09


--------------------------------------------------------------------------------------------------------


    POTLOK:  cpu time      0.7780: real time      0.7780


--------------------------------------------------------------------------------------------------------




--------------------------------------------------------------------------------------------------------


  
 reached required accuracy - stopping structural energy minimisation
     LOOP+:  cpu time    158.0653: real time    158.0991
    4ORBIT:  cpu time      0.0000: real time      0.0000

 total amount of memory used by VASP MPI-rank0    99916. kBytes
=======================================================================

   base      :      30000. kBytes
   nonl-proj :      19302. kBytes
   fftplans  :      13009. kBytes
   grid      :       8308. kBytes
   one-center:         77. kBytes
   wavefun   :      29220. kBytes
 
  
  
 General timing and accounting informations for this job:
 ========================================================
  
                  Total CPU time used (sec):     1495.589
                            User time (sec):     1492.047
                          System time (sec):        3.542
                         Elapsed time (sec):     1496.272
  
                   Maximum memory used (kb):      198508.
                   Average memory used (kb):          N/A
  
                          Minor page faults:        36096
                          Major page faults:            5
                 Voluntary context switches:          154
