<?xml version="1.0" encoding="ISO-8859-1"?>
<modeling>
 <generator>
  <i name="program" type="string">vasp </i>
  <i name="version" type="string">6.4.3  </i>
  <i name="subversion" type="string">19Mar24 (build Apr 09 2025 20:43:19) complex                          parallel </i>
  <i name="platform" type="string">LinuxIFC </i>
  <i name="date" type="string">2025 04 16 </i>
  <i name="time" type="string">14:04:11 </i>
 </generator>
 <incar>
  <i type="string" name="PREC">Accurate</i>
  <i type="int" name="IALGO">    38</i>
  <i type="logical" name="ADDGRID"> T  </i>
  <i type="int" name="NELMIN">     5</i>
  <i type="int" name="IBRION">     2</i>
  <i name="EDIFF">      0.00000010</i>
  <i name="EDIFFG">     -0.00010000</i>
  <i type="int" name="NSW">   100</i>
  <i type="int" name="ISIF">     2</i>
  <i name="ENCUT">    520.00000000</i>
  <i type="logical" name="LREAL"> F  </i>
  <i type="int" name="ISMEAR">     0</i>
  <i name="SIGMA">      0.05000000</i>
  <i type="logical" name="LWAVE"> F  </i>
  <i type="logical" name="LCHARG"> F  </i>
 </incar>
 <primitive_cell>
  <structure name="primitive_cell" >
   <crystal>
    <varray name="basis" >
     <v>       8.11456462       0.00000000       0.00000000 </v>
     <v>       0.00000000       8.11456462       0.00000000 </v>
     <v>       0.00000000       0.00000000      12.80574637 </v>
    </varray>
    <i name="volume">    843.20921025 </i>
    <varray name="rec_basis" >
     <v>       0.12323520       0.00000000       0.00000000 </v>
     <v>       0.00000000       0.12323520       0.00000000 </v>
     <v>       0.00000000       0.00000000       0.07808994 </v>
    </varray>
   </crystal>
   <varray name="positions" >
    <v>       0.24847935       0.24847935       0.84918915 </v>
    <v>       0.75152065       0.24847935       0.84918915 </v>
    <v>       0.24847935       0.75152065       0.84918915 </v>
    <v>       0.75152065       0.75152065       0.84918915 </v>
    <v>       0.00000000       0.00000000       0.64992540 </v>
    <v>       0.50000000       0.00000000       0.65306606 </v>
    <v>       0.00000000       0.50000000       0.65306606 </v>
    <v>       0.50000000       0.50000000       0.65585736 </v>
    <v>       0.00000000       0.00000000       0.35007460 </v>
    <v>       0.50000000       0.00000000       0.34693394 </v>
    <v>       0.00000000       0.50000000       0.34693394 </v>
    <v>       0.50000000       0.50000000       0.34414264 </v>
    <v>       0.24847935       0.24847935       0.15081085 </v>
    <v>       0.75152065       0.24847935       0.15081085 </v>
    <v>       0.24847935       0.75152065       0.15081085 </v>
    <v>       0.75152065       0.75152065       0.15081085 </v>
    <v>       0.50000000       0.00000000       0.00000000 </v>
    <v>       0.00000000       0.50000000       0.00000000 </v>
    <v>       0.50000000       0.50000000       0.00000000 </v>
    <v>       0.24553148       0.24553148       0.50000000 </v>
    <v>       0.75446852       0.24553148       0.50000000 </v>
    <v>       0.24553148       0.75446852       0.50000000 </v>
    <v>       0.75446852       0.75446852       0.50000000 </v>
    <v>       0.00000000       0.25069316       0.75112474 </v>
    <v>       0.50000000       0.25069891       0.75104370 </v>
    <v>       0.00000000       0.74930684       0.75112474 </v>
    <v>       0.50000000       0.74930109       0.75104370 </v>
    <v>       0.25069316       0.00000000       0.75112474 </v>
    <v>       0.74930684       0.00000000       0.75112474 </v>
    <v>       0.25069891       0.50000000       0.75104370 </v>
    <v>       0.74930109       0.50000000       0.75104370 </v>
    <v>       0.25069316       0.00000000       0.24887526 </v>
    <v>       0.74930684       0.00000000       0.24887526 </v>
    <v>       0.25069891       0.50000000       0.24895630 </v>
    <v>       0.74930109       0.50000000       0.24895630 </v>
    <v>       0.00000000       0.25069316       0.24887526 </v>
    <v>       0.50000000       0.25069891       0.24895630 </v>
    <v>       0.00000000       0.74930684       0.24887526 </v>
    <v>       0.50000000       0.74930109       0.24895630 </v>
    <v>       0.00000000       0.00000000       0.00000000 </v>
   </varray>
  </structure>
  <varray name="primitive_index" >
   <v type="int" >        1 </v>
   <v type="int" >        2 </v>
   <v type="int" >        3 </v>
   <v type="int" >        4 </v>
   <v type="int" >        5 </v>
   <v type="int" >        6 </v>
   <v type="int" >        7 </v>
   <v type="int" >        8 </v>
   <v type="int" >        9 </v>
   <v type="int" >       10 </v>
   <v type="int" >       11 </v>
   <v type="int" >       12 </v>
   <v type="int" >       13 </v>
   <v type="int" >       14 </v>
   <v type="int" >       15 </v>
   <v type="int" >       16 </v>
   <v type="int" >       17 </v>
   <v type="int" >       18 </v>
   <v type="int" >       19 </v>
   <v type="int" >       20 </v>
   <v type="int" >       21 </v>
   <v type="int" >       22 </v>
   <v type="int" >       23 </v>
   <v type="int" >       24 </v>
   <v type="int" >       25 </v>
   <v type="int" >       26 </v>
   <v type="int" >       27 </v>
   <v type="int" >       28 </v>
   <v type="int" >       29 </v>
   <v type="int" >       30 </v>
   <v type="int" >       31 </v>
   <v type="int" >       32 </v>
   <v type="int" >       33 </v>
   <v type="int" >       34 </v>
   <v type="int" >       35 </v>
   <v type="int" >       36 </v>
   <v type="int" >       37 </v>
   <v type="int" >       38 </v>
   <v type="int" >       39 </v>
   <v type="int" >       40 </v>
  </varray>
 </primitive_cell>
 <kpoints>
  <generation param="Gamma">
   <v type="int" name="divisions">       4        4        3 </v>
   <v name="usershift">      0.00000000       0.00000000       0.00000000 </v>
   <v name="genvec1">      0.25000000       0.00000000       0.00000000 </v>
   <v name="genvec2">      0.00000000       0.25000000       0.00000000 </v>
   <v name="genvec3">      0.00000000       0.00000000       0.33333333 </v>
   <v name="shift">      0.00000000       0.00000000       0.00000000 </v>
  </generation>
  <varray name="kpointlist" >
   <v>       0.00000000       0.00000000       0.00000000 </v>
   <v>       0.25000000       0.00000000       0.00000000 </v>
   <v>       0.50000000       0.00000000       0.00000000 </v>
   <v>       0.25000000       0.25000000       0.00000000 </v>
   <v>       0.50000000       0.25000000       0.00000000 </v>
   <v>       0.50000000       0.50000000       0.00000000 </v>
   <v>       0.00000000       0.00000000       0.33333333 </v>
   <v>       0.25000000       0.00000000       0.33333333 </v>
   <v>       0.50000000       0.00000000       0.33333333 </v>
   <v>       0.25000000       0.25000000       0.33333333 </v>
   <v>       0.50000000       0.25000000       0.33333333 </v>
   <v>       0.50000000       0.50000000       0.33333333 </v>
  </varray>
  <varray name="weights" >
   <v>       0.02083333 </v>
   <v>       0.08333333 </v>
   <v>       0.04166667 </v>
   <v>       0.08333333 </v>
   <v>       0.08333333 </v>
   <v>       0.02083333 </v>
   <v>       0.04166667 </v>
   <v>       0.16666667 </v>
   <v>       0.08333333 </v>
   <v>       0.16666667 </v>
   <v>       0.16666667 </v>
   <v>       0.04166667 </v>
  </varray>
 </kpoints>
 <parameters>
  <separator name="general" >
   <i type="string" name="SYSTEM">unknown system</i>
   <i type="logical" name="LCOMPAT"> F  </i>
  </separator>
  <separator name="electronic" >
   <i type="string" name="PREC">accura</i>
   <i name="ENMAX">    520.00000000</i>
   <i name="ENAUG">    605.39200000</i>
   <i name="EDIFF">      0.00000010</i>
   <i type="int" name="IALGO">    38</i>
   <i type="int" name="IWAVPR">    11</i>
   <i type="int" name="NBANDS">   232</i>
   <i type="int" name="NBANDSLOW">    -1</i>
   <i type="int" name="NBANDSHIGH">    -1</i>
   <i name="NELECT">    384.00000000</i>
   <i type="int" name="TURBO">     0</i>
   <i type="int" name="IRESTART">     0</i>
   <i type="int" name="NREBOOT">     0</i>
   <i type="int" name="NMIN">     0</i>
   <i name="EREF">      0.00000000</i>
   <separator name="electronic smearing" >
    <i type="int" name="ISMEAR">     0</i>
    <i name="SIGMA">      0.05000000</i>
    <i name="KSPACING">      0.50000000</i>
    <i type="logical" name="KGAMMA"> T  </i>
    <i type="logical" name="KBLOWUP"> T  </i>
   </separator>
   <separator name="electronic projectors" >
    <i type="logical" name="LREAL"> F  </i>
    <v name="ROPT">      0.00000000      0.00000000      0.00000000      0.00000000</v>
    <i type="int" name="LMAXPAW">  -100</i>
    <i type="int" name="LMAXMIX">     2</i>
    <i type="logical" name="NLSPLINE"> F  </i>
   </separator>
   <separator name="electronic startup" >
    <i type="int" name="ISTART">     0</i>
    <i type="int" name="ICHARG">     2</i>
    <i type="int" name="INIWAV">     1</i>
   </separator>
   <separator name="electronic spin" >
    <i type="int" name="ISPIN">     1</i>
    <i type="logical" name="LNONCOLLINEAR"> F  </i>
    <v name="MAGMOM">      1.00000000      1.00000000      1.00000000      1.00000000      1.00000000      1.00000000      1.00000000      1.00000000      1.00000000      1.00000000      1.00000000      1.00000000      1.00000000      1.00000000      1.00000000      1.00000000      1.00000000      1.00000000      1.00000000      1.00000000
      1.00000000      1.00000000      1.00000000      1.00000000      1.00000000      1.00000000      1.00000000      1.00000000      1.00000000      1.00000000      1.00000000      1.00000000      1.00000000      1.00000000      1.00000000      1.00000000      1.00000000      1.00000000      1.00000000      1.00000000
</v>
    <i name="NUPDOWN">     -1.00000000</i>
    <i type="logical" name="LSORBIT"> F  </i>
    <v name="SAXIS">      0.00000000      0.00000000      1.00000000</v>
    <i type="logical" name="LSPIRAL"> F  </i>
    <v name="QSPIRAL">      0.00000000      0.00000000      0.00000000</v>
    <i type="logical" name="LZEROZ"> F  </i>
   </separator>
   <separator name="electronic exchange-correlation" >
    <i type="logical" name="LASPH"> F  </i>
   </separator>
   <separator name="electronic convergence" >
    <i type="int" name="NELM">    60</i>
    <i type="int" name="NELMDL">    -5</i>
    <i type="int" name="NELMIN">     5</i>
    <i name="ENINI">    520.00000000</i>
    <separator name="electronic convergence detail" >
     <i type="logical" name="LDIAG"> T  </i>
     <i type="logical" name="LSUBROT"> F  </i>
     <i name="WEIMIN">      0.00100000</i>
     <i name="EBREAK">      0.00000000</i>
     <i name="DEPER">      0.30000000</i>
     <i type="int" name="NRMM">     4</i>
     <i name="TIME">      0.40000000</i>
    </separator>
   </separator>
   <separator name="electronic mixer" >
    <i name="AMIX">      0.40000000</i>
    <i name="BMIX">      1.00000000</i>
    <i name="AMIN">      0.10000000</i>
    <i name="AMIX_MAG">      1.60000000</i>
    <i name="BMIX_MAG">      1.00000000</i>
    <separator name="electronic mixer details" >
     <i type="int" name="IMIX">     4</i>
     <i type="logical" name="MIXFIRST"> F  </i>
     <i type="int" name="MAXMIX">   -45</i>
     <i name="WC">    100.00000000</i>
     <i type="int" name="INIMIX">     1</i>
     <i type="int" name="MIXPRE">     1</i>
     <i type="int" name="MREMOVE">     5</i>
    </separator>
   </separator>
   <separator name="electronic dipolcorrection" >
    <i type="logical" name="LDIPOL"> F  </i>
    <i type="logical" name="LMONO"> F  </i>
    <i type="int" name="IDIPOL">     0</i>
    <i name="EPSILON">      1.00000000</i>
    <v name="DIPOL">   -100.00000000   -100.00000000   -100.00000000</v>
    <i name="EFIELD">      0.00000000</i>
    <i type="logical" name="LVACPOTAV"> F  </i>
   </separator>
  </separator>
  <separator name="grids" >
   <i type="int" name="NGX">    60</i>
   <i type="int" name="NGY">    60</i>
   <i type="int" name="NGZ">    96</i>
   <i type="int" name="NGXF">   120</i>
   <i type="int" name="NGYF">   120</i>
   <i type="int" name="NGZF">   192</i>
   <i type="logical" name="ADDGRID"> T  </i>
  </separator>
  <separator name="ionic" >
   <i type="int" name="NSW">   100</i>
   <i type="int" name="IBRION">     2</i>
   <i type="int" name="MDALGO">     0</i>
   <i type="int" name="ISIF">     2</i>
   <i name="PSTRESS">      0.00000000</i>
   <i name="EDIFFG">     -0.00010000</i>
   <i type="int" name="NFREE">     1</i>
   <i name="POTIM">      0.50000000</i>
   <i name="SMASS">     -3.00000000</i>
   <i name="SCALEE">      1.00000000</i>
  </separator>
  <separator name="ionic md" >
   <i name="TEBEG">      0.00010000</i>
   <i name="TEEND">      0.00010000</i>
   <i type="int" name="NBLOCK">     1</i>
   <i type="int" name="KBLOCK">   100</i>
   <i type="int" name="NPACO">   256</i>
   <i name="APACO">     10.00000000</i>
  </separator>
  <separator name="symmetry" >
   <i type="int" name="ISYM">     2</i>
   <i name="SYMPREC">      0.00001000</i>
  </separator>
  <separator name="dos" >
   <i type="int" name="LORBIT">     0</i>
   <v name="RWIGS">     -1.00000000     -1.00000000     -1.00000000     -1.00000000</v>
   <i type="int" name="NEDOS">   301</i>
   <i name="EMIN">     10.00000000</i>
   <i name="EMAX">    -10.00000000</i>
   <i name="EFERMI">      0.00000000</i>
  </separator>
  <separator name="writing" >
   <i type="int" name="NWRITE">     2</i>
   <i type="logical" name="LWAVE"> F  </i>
   <i type="logical" name="LDOWNSAMPLE"> F  </i>
   <i type="logical" name="LCHARG"> F  </i>
   <i type="logical" name="LPARD"> F  </i>
   <i type="logical" name="LVTOT"> F  </i>
   <i type="logical" name="LVHAR"> F  </i>
   <i type="logical" name="LELF"> F  </i>
   <i type="logical" name="LOPTICS"> F  </i>
   <v name="STM">      0.00000000      0.00000000      0.00000000      0.00000000      0.00000000      0.00000000      0.00000000</v>
  </separator>
  <separator name="performance" >
   <i type="int" name="NPAR">     4</i>
   <i type="int" name="NSIM">     4</i>
   <i type="int" name="NBLK">    -1</i>
   <i type="logical" name="LPLANE"> T  </i>
   <i type="logical" name="LSCALAPACK"> T  </i>
   <i type="logical" name="LSCAAWARE"> F  </i>
   <i type="logical" name="LSCALU"> F  </i>
   <i type="logical" name="LASYNC"> F  </i>
   <i type="logical" name="LORBITALREAL"> F  </i>
  </separator>
  <separator name="miscellaneous" >
   <i type="int" name="IDIOT">     3</i>
   <i type="int" name="PHON_NSTRUCT">    -1</i>
   <i type="logical" name="LMUSIC"> F  </i>
   <v name="POMASS">    208.98000000     78.96000000     16.00000000     32.06600000</v>
   <v name="DARWINR">      0.00000000      0.00000000      0.00000000      0.00000000</v>
   <v name="DARWINV">      1.00000000      1.00000000      1.00000000      1.00000000</v>
   <i type="logical" name="LCORR"> T  </i>
  </separator>
  <i type="logical" name="GGA_COMPAT"> T  </i>
  <i type="logical" name="LBERRY"> F  </i>
  <i type="int" name="ICORELEVEL">     0</i>
  <i type="logical" name="LDAU"> F  </i>
  <i type="int" name="I_CONSTRAINED_M">     0</i>
  <separator name="electronic exchange-correlation" >
   <i type="string" name="GGA    ">PE</i>
   <i type="string" name="XC_C">1</i>
   <i type="int" name="VOSKOWN">     0</i>
   <i type="logical" name="LHFCALC"> F  </i>
   <i type="string" name="PRECFOCK"></i>
   <i type="logical" name="LSYMGRAD"> F  </i>
   <i type="logical" name="LHFONE"> F  </i>
   <i type="logical" name="LRHFCALC"> F  </i>
   <i type="logical" name="LTHOMAS"> F  </i>
   <i type="logical" name="LMODELHF"> F  </i>
   <i type="logical" name="LFOCKACE"> F  </i>
   <i name="ENCUT4O">     -1.00000000</i>
   <i type="int" name="EXXOEP">     0</i>
   <i type="int" name="FOURORBIT">     0</i>
   <i name="AEXX">      0.00000000</i>
   <i name="HFALPHA">      0.00000000</i>
   <i name="MCALPHA">      0.00000000</i>
   <i name="ALDAX">      1.00000000</i>
   <i name="AGGAX">      1.00000000</i>
   <i name="AMGGAX">      1.00000000</i>
   <i name="ALDAC">      1.00000000</i>
   <i name="AGGAC">      1.00000000</i>
   <i name="AMGGAC">      1.00000000</i>
   <i type="int" name="NKREDX">     1</i>
   <i type="int" name="NKREDY">     1</i>
   <i type="int" name="NKREDZ">     1</i>
   <i type="logical" name="SHIFTRED"> F  </i>
   <i type="logical" name="ODDONLY"> F  </i>
   <i type="logical" name="EVENONLY"> F  </i>
   <i type="int" name="LMAXFOCK">     0</i>
   <i type="int" name="NMAXFOCKAE">     0</i>
   <i type="logical" name="LFOCKAEDFT"> F  </i>
   <i name="HFSCREEN">      0.00000000</i>
   <i name="HFSCREENC">      0.00000000</i>
   <i type="int" name="NBANDSGWLOW">     0</i>
  </separator>
  <separator name="vdW DFT" >
   <i type="logical" name="LUSE_VDW"> F  </i>
   <i type="int" name="IVDW_NL">    -1</i>
   <i type="logical" name="LSPIN_VDW"> F  </i>
   <i name="ZAB_VDW">     -0.84910000</i>
   <i name="GAMMA_VDW">      1.39626340</i>
   <i name="ALPHA_VDW">      0.00000000</i>
   <i name="PARAM1">      0.12340000</i>
   <i name="PARAM2">      1.00000000</i>
   <i name="BPARAM">      6.30000000</i>
   <i name="CPARAM">      0.00930000</i>
  </separator>
  <separator name="model GW" >
   <i type="int" name="MODEL_GW">     0</i>
   <i name="MODEL_EPS0">     12.64813815</i>
   <i name="MODEL_ALPHA">      1.00000000</i>
  </separator>
  <separator name="linear response parameters" >
   <i type="logical" name="LEPSILON"> F  </i>
   <i type="logical" name="LRPA"> F  </i>
   <i type="logical" name="LNABLA"> F  </i>
   <i type="logical" name="LVEL"> F  </i>
   <i name="CSHIFT">      0.10000000</i>
   <i name="OMEGAMAX">     -1.00000000</i>
   <i name="DEG_THRESHOLD">      0.00200000</i>
   <i name="RTIME">     -0.10000000</i>
   <i name="WPLASMAI">      0.00000000</i>
   <v name="DFIELD">      0.00000000      0.00000000      0.00000000</v>
   <v name="WPLASMA">      0.00000000      0.00000000      0.00000000      0.00000000      0.00000000      0.00000000      0.00000000      0.00000000      0.00000000</v>
  </separator>
  <separator name="orbital magnetization" >
   <i type="logical" name="NUCIND"> F  </i>
   <v name="MAGPOS">      0.00000000      0.00000000      0.00000000</v>
   <i type="logical" name="LNICSALL"> T  </i>
   <i type="logical" name="ORBITALMAG"> F  </i>
   <i type="logical" name="LMAGBLOCH"> F  </i>
   <i type="logical" name="LCHIMAG"> F  </i>
   <i type="logical" name="LGAUGE"> T  </i>
   <i type="int" name="MAGATOM">     0</i>
   <v name="MAGDIPOL">      0.00000000      0.00000000      0.00000000</v>
   <v name="AVECCONST">      0.00000000      0.00000000      0.00000000</v>
  </separator>
  <separator name="response functions" >
   <i type="logical" name="LALL_IN_ONE"> F  </i>
   <i type="int" name="IALL_IN_ONE">    -1</i>
   <i type="int" name="NBANDS_WAVE">    -1</i>
   <i type="logical" name="LFINITE_TEMPERATURE"> F  </i>
   <i type="logical" name="LADDER"> F  </i>
   <i type="logical" name="LRPAFORCE"> F  </i>
   <i type="logical" name="LFXC"> F  </i>
   <i type="logical" name="LHARTREE"> T  </i>
   <i type="int" name="IBSE">     0</i>
   <v type="int" name="KPOINT">    -1     0     0     0</v>
   <i type="logical" name="LTCTC"> F  </i>
   <i type="logical" name="LTCTE"> F  </i>
   <i type="logical" name="LTETE"> F  </i>
   <i type="logical" name="LTRIPLET"> F  </i>
   <i type="logical" name="LFXCEPS"> F  </i>
   <i type="logical" name="LFXHEG"> F  </i>
   <i type="int" name="NATURALO">     2</i>
   <i type="logical" name="LHOLEGF"> F  </i>
   <i type="logical" name="L2ORDER"> F  </i>
   <i type="logical" name="LDMP1"> F  </i>
   <i type="logical" name="LMP2LT"> F  </i>
   <i type="logical" name="LSMP2LT"> F  </i>
   <i type="logical" name="LGWLF"> F  </i>
   <i name="ENCUTGW">     -1.60000002</i>
   <i name="ENCUTGWSOFT">     -1.60000002</i>
   <i name="ENCUTLF">     -1.00000000</i>
   <i type="logical" name="ESF_SPLINES"> F  </i>
   <i name="ESF_CONV">      0.01000000</i>
   <i type="int" name="ESF_NINTER">    15</i>
   <i type="int" name="LMAXMP2">    -1</i>
   <i name="SCISSOR">      0.00000000</i>
   <i type="int" name="NOMEGA">     0</i>
   <i type="int" name="NOMEGAR">     0</i>
   <i type="int" name="NBANDSGW">    -1</i>
   <i type="int" name="NBANDSO">    -1</i>
   <i type="int" name="NBANDSV">    -1</i>
   <i type="int" name="NELMGW">     1</i>
   <i type="int" name="NELMHF">     1</i>
   <i type="int" name="DIM">     3</i>
   <i type="int" name="IESPILON">     4</i>
   <i type="int" name="ANTIRES">     0</i>
   <i name="OMEGAMAX">    -30.00000000</i>
   <i name="OMEGAMIN">    -30.00000000</i>
   <i name="OMEGATL">   -200.00000000</i>
   <i type="int" name="OMEGAGRID">     0</i>
   <i name="CSHIFT">     -0.10000000</i>
   <i type="logical" name="LSELFENERGY"> F  </i>
   <i type="logical" name="LSPECTRAL"> F  </i>
   <i type="logical" name="LSPECTRALGW"> F  </i>
   <i type="logical" name="LSINGLES"> F  </i>
   <i type="logical" name="LFERMIGW"> F  </i>
   <i type="logical" name="ODDONLYGW"> F  </i>
   <i type="logical" name="EVENONLYGW"> F  </i>
   <i type="int" name="NKREDLFX">     1</i>
   <i type="int" name="NKREDLFY">     1</i>
   <i type="int" name="NKREDLFZ">     1</i>
   <i type="int" name="MAXMEM">  2800</i>
   <i type="int" name="TELESCOPE">     0</i>
   <i type="int" name="NTAUPAR">    -1</i>
   <i type="int" name="NOMEGAPAR">    -1</i>
   <i name="DAMP_NEWTON">      0.80000001</i>
   <i name="LAMBDA">      1.00000000</i>
  </separator>
  <separator name="External order field" >
   <i name="OFIELD_KAPPA">      0.00000000</i>
   <v name="OFIELD_K">      0.00000000      0.00000000      0.00000000</v>
   <i name="OFIELD_Q6_NEAR">      0.00000000</i>
   <i name="OFIELD_Q6_FAR">      0.00000000</i>
   <i name="OFIELD_A">      0.00000000</i>
  </separator>
  <separator name="optional k-points parameters" >
   <i type="int" name="KPOINTS_OPT_MODE">     1</i>
   <i type="logical" name="LKPOINTS_OPT"> F  </i>
  </separator>
 </parameters>
 <atominfo>
  <atoms>      40 </atoms>
  <types>       4 </types>
  <array name="atoms" >
   <dimension dim="1">ion</dimension>
   <field type="string">element</field>
   <field type="int">atomtype</field>
   <set>
    <rc><c>Bi</c><c>   1</c></rc>
    <rc><c>Bi</c><c>   1</c></rc>
    <rc><c>Bi</c><c>   1</c></rc>
    <rc><c>Bi</c><c>   1</c></rc>
    <rc><c>Bi</c><c>   1</c></rc>
    <rc><c>Bi</c><c>   1</c></rc>
    <rc><c>Bi</c><c>   1</c></rc>
    <rc><c>Bi</c><c>   1</c></rc>
    <rc><c>Bi</c><c>   1</c></rc>
    <rc><c>Bi</c><c>   1</c></rc>
    <rc><c>Bi</c><c>   1</c></rc>
    <rc><c>Bi</c><c>   1</c></rc>
    <rc><c>Bi</c><c>   1</c></rc>
    <rc><c>Bi</c><c>   1</c></rc>
    <rc><c>Bi</c><c>   1</c></rc>
    <rc><c>Bi</c><c>   1</c></rc>
    <rc><c>Se</c><c>   2</c></rc>
    <rc><c>Se</c><c>   2</c></rc>
    <rc><c>Se</c><c>   2</c></rc>
    <rc><c>Se</c><c>   2</c></rc>
    <rc><c>Se</c><c>   2</c></rc>
    <rc><c>Se</c><c>   2</c></rc>
    <rc><c>Se</c><c>   2</c></rc>
    <rc><c>O </c><c>   3</c></rc>
    <rc><c>O </c><c>   3</c></rc>
    <rc><c>O </c><c>   3</c></rc>
    <rc><c>O </c><c>   3</c></rc>
    <rc><c>O </c><c>   3</c></rc>
    <rc><c>O </c><c>   3</c></rc>
    <rc><c>O </c><c>   3</c></rc>
    <rc><c>O </c><c>   3</c></rc>
    <rc><c>O </c><c>   3</c></rc>
    <rc><c>O </c><c>   3</c></rc>
    <rc><c>O </c><c>   3</c></rc>
    <rc><c>O </c><c>   3</c></rc>
    <rc><c>O </c><c>   3</c></rc>
    <rc><c>O </c><c>   3</c></rc>
    <rc><c>O </c><c>   3</c></rc>
    <rc><c>O </c><c>   3</c></rc>
    <rc><c>S </c><c>   4</c></rc>
   </set>
  </array>
  <array name="atomtypes" >
   <dimension dim="1">type</dimension>
   <field type="int">atomspertype</field>
   <field type="string">element</field>
   <field>mass</field>
   <field>valence</field>
   <field type="string">pseudopotential</field>
   <set>
    <rc><c>  16</c><c>Bi</c><c>    208.98000000</c><c>     15.00000000</c><c>  PAW_PBE Bi_d 06Sep2000                </c></rc>
    <rc><c>   7</c><c>Se</c><c>     78.96000000</c><c>      6.00000000</c><c>  PAW_PBE Se 06Sep2000                  </c></rc>
    <rc><c>  16</c><c>O </c><c>     16.00000000</c><c>      6.00000000</c><c>  PAW_PBE O 08Apr2002                   </c></rc>
    <rc><c>   1</c><c>S </c><c>     32.06600000</c><c>      6.00000000</c><c>  PAW_PBE S 06Sep2000                   </c></rc>
   </set>
  </array>
 </atominfo>
 <structure name="initialpos" >
  <crystal>
   <varray name="basis" >
    <v>       8.11456462       0.00000000       0.00000000 </v>
    <v>       0.00000000       8.11456462       0.00000000 </v>
    <v>       0.00000000       0.00000000      12.80574637 </v>
   </varray>
   <i name="volume">    843.20921025 </i>
   <varray name="rec_basis" >
    <v>       0.12323520       0.00000000       0.00000000 </v>
    <v>       0.00000000       0.12323520       0.00000000 </v>
    <v>       0.00000000       0.00000000       0.07808994 </v>
   </varray>
  </crystal>
  <varray name="positions" >
   <v>       0.24847935       0.24847935       0.84918915 </v>
   <v>       0.75152065       0.24847935       0.84918915 </v>
   <v>       0.24847935       0.75152065       0.84918915 </v>
   <v>       0.75152065       0.75152065       0.84918915 </v>
   <v>       0.00000000       0.00000000       0.64992540 </v>
   <v>       0.50000000       0.00000000       0.65306606 </v>
   <v>       0.00000000       0.50000000       0.65306606 </v>
   <v>       0.50000000       0.50000000       0.65585736 </v>
   <v>       0.00000000       0.00000000       0.35007460 </v>
   <v>       0.50000000       0.00000000       0.34693394 </v>
   <v>       0.00000000       0.50000000       0.34693394 </v>
   <v>       0.50000000       0.50000000       0.34414264 </v>
   <v>       0.24847935       0.24847935       0.15081085 </v>
   <v>       0.75152065       0.24847935       0.15081085 </v>
   <v>       0.24847935       0.75152065       0.15081085 </v>
   <v>       0.75152065       0.75152065       0.15081085 </v>
   <v>       0.50000000       0.00000000       0.00000000 </v>
   <v>       0.00000000       0.50000000       0.00000000 </v>
   <v>       0.50000000       0.50000000       0.00000000 </v>
   <v>       0.24553148       0.24553148       0.50000000 </v>
   <v>       0.75446852       0.24553148       0.50000000 </v>
   <v>       0.24553148       0.75446852       0.50000000 </v>
   <v>       0.75446852       0.75446852       0.50000000 </v>
   <v>       0.00000000       0.25069316       0.75112474 </v>
   <v>       0.50000000       0.25069891       0.75104370 </v>
   <v>       0.00000000       0.74930684       0.75112474 </v>
   <v>       0.50000000       0.74930109       0.75104370 </v>
   <v>       0.25069316       0.00000000       0.75112474 </v>
   <v>       0.74930684       0.00000000       0.75112474 </v>
   <v>       0.25069891       0.50000000       0.75104370 </v>
   <v>       0.74930109       0.50000000       0.75104370 </v>
   <v>       0.25069316       0.00000000       0.24887526 </v>
   <v>       0.74930684       0.00000000       0.24887526 </v>
   <v>       0.25069891       0.50000000       0.24895630 </v>
   <v>       0.74930109       0.50000000       0.24895630 </v>
   <v>       0.00000000       0.25069316       0.24887526 </v>
   <v>       0.50000000       0.25069891       0.24895630 </v>
   <v>       0.00000000       0.74930684       0.24887526 </v>
   <v>       0.50000000       0.74930109       0.24895630 </v>
   <v>       0.00000000       0.00000000       0.00000000 </v>
  </varray>
 </structure>
 <calculation>
  <scstep>
   <time name="dav">   34.93   34.93</time>
   <time name="total">   35.72   35.72</time>
   <energy>
    <i name="alphaZ">   1197.98996456 </i>
    <i name="ewald"> -27949.93358272 </i>
    <i name="hartreedc"> -12362.42355618 </i>
    <i name="XCdc">   1226.04517129 </i>
    <i name="pawpsdc">  34040.00696010 </i>
    <i name="pawaedc"> -33495.80632930 </i>
    <i name="eentropy">     -0.00316241 </i>
    <i name="bandstr">   2374.22868011 </i>
    <i name="atom">  40341.65184589 </i>
    <i name="e_fr_energy">   5371.75599136 </i>
    <i name="e_wo_entrp">   5371.75915377 </i>
    <i name="e_0_energy">   5371.75757256 </i>
   </energy>
  </scstep>
  <scstep>
   <time name="dav">   35.14   35.14</time>
   <time name="total">   35.14   35.15</time>
   <energy>
    <i name="e_fr_energy">    870.19114392 </i>
    <i name="e_wo_entrp">    870.19894397 </i>
    <i name="e_0_energy">    870.19504394 </i>
   </energy>
  </scstep>
  <scstep>
   <time name="dav">   37.88   37.89</time>
   <time name="total">   37.88   37.89</time>
   <energy>
    <i name="e_fr_energy">   -124.23482729 </i>
    <i name="e_wo_entrp">   -124.23482729 </i>
    <i name="e_0_energy">   -124.23482729 </i>
   </energy>
  </scstep>
  <scstep>
   <time name="dav">   39.18   39.18</time>
   <time name="total">   39.18   39.19</time>
   <energy>
    <i name="e_fr_energy">   -237.58417972 </i>
    <i name="e_wo_entrp">   -237.58417972 </i>
    <i name="e_0_energy">   -237.58417972 </i>
   </energy>
  </scstep>
  <scstep>
   <time name="dav">   40.75   40.76</time>
   <time name="total">   41.94   41.95</time>
   <energy>
    <i name="e_fr_energy">   -243.39833926 </i>
    <i name="e_wo_entrp">   -243.39833926 </i>
    <i name="e_0_energy">   -243.39833926 </i>
   </energy>
  </scstep>
  <scstep>
   <time name="dav">   43.66   43.67</time>
   <time name="total">   45.66   45.67</time>
   <energy>
    <i name="e_fr_energy">   -208.00093838 </i>
    <i name="e_wo_entrp">   -208.00093838 </i>
    <i name="e_0_energy">   -208.00093838 </i>
   </energy>
  </scstep>
  <scstep>
   <time name="dav">   37.75   37.77</time>
   <time name="total">   39.74   39.76</time>
   <energy>
    <i name="e_fr_energy">   -207.01521229 </i>
    <i name="e_wo_entrp">   -207.01369092 </i>
    <i name="e_0_energy">   -207.01445161 </i>
   </energy>
  </scstep>
  <scstep>
   <time name="dav">   43.50   43.50</time>
   <time name="total">   45.49   45.49</time>
   <energy>
    <i name="e_fr_energy">   -207.17094608 </i>
    <i name="e_wo_entrp">   -207.16866629 </i>
    <i name="e_0_energy">   -207.16980619 </i>
   </energy>
  </scstep>
  <scstep>
   <time name="dav">   42.27   42.29</time>
   <time name="total">   44.26   44.28</time>
   <energy>
    <i name="e_fr_energy">   -207.12598305 </i>
    <i name="e_wo_entrp">   -207.12482690 </i>
    <i name="e_0_energy">   -207.12540498 </i>
   </energy>
  </scstep>
  <scstep>
   <time name="dav">   41.73   41.73</time>
   <time name="total">   43.72   43.72</time>
   <energy>
    <i name="e_fr_energy">   -207.10792036 </i>
    <i name="e_wo_entrp">   -207.10591972 </i>
    <i name="e_0_energy">   -207.10692004 </i>
   </energy>
  </scstep>
  <scstep>
   <time name="dav">   44.13   44.16</time>
   <time name="total">   46.11   46.14</time>
   <energy>
    <i name="e_fr_energy">   -207.11063584 </i>
    <i name="e_wo_entrp">   -207.10867469 </i>
    <i name="e_0_energy">   -207.10965527 </i>
   </energy>
  </scstep>
  <scstep>
   <time name="dav">   41.67   41.67</time>
   <time name="total">   43.67   43.67</time>
   <energy>
    <i name="e_fr_energy">   -207.11211126 </i>
    <i name="e_wo_entrp">   -207.11022202 </i>
    <i name="e_0_energy">   -207.11116664 </i>
   </energy>
  </scstep>
  <scstep>
   <time name="dav">   38.64   38.66</time>
   <time name="total">   40.63   40.65</time>
   <energy>
    <i name="e_fr_energy">   -207.11221594 </i>
    <i name="e_wo_entrp">   -207.11032084 </i>
    <i name="e_0_energy">   -207.11126839 </i>
   </energy>
  </scstep>
  <scstep>
   <time name="dav">   40.94   40.95</time>
   <time name="total">   42.93   42.94</time>
   <energy>
    <i name="e_fr_energy">   -207.11210924 </i>
    <i name="e_wo_entrp">   -207.11019858 </i>
    <i name="e_0_energy">   -207.11115391 </i>
   </energy>
  </scstep>
  <scstep>
   <time name="dav">   44.42   44.46</time>
   <time name="total">   46.41   46.45</time>
   <energy>
    <i name="e_fr_energy">   -207.11209228 </i>
    <i name="e_wo_entrp">   -207.11017588 </i>
    <i name="e_0_energy">   -207.11113408 </i>
   </energy>
  </scstep>
  <scstep>
   <time name="dav">   40.35   40.39</time>
   <time name="total">   42.34   42.38</time>
   <energy>
    <i name="e_fr_energy">   -207.11208701 </i>
    <i name="e_wo_entrp">   -207.11016465 </i>
    <i name="e_0_energy">   -207.11112583 </i>
   </energy>
  </scstep>
  <scstep>
   <time name="dav">   36.32   36.33</time>
   <time name="total">   38.31   38.32</time>
   <energy>
    <i name="e_fr_energy">   -207.11208570 </i>
    <i name="e_wo_entrp">   -207.11016359 </i>
    <i name="e_0_energy">   -207.11112465 </i>
   </energy>
  </scstep>
  <scstep>
   <time name="dav">   36.09   36.12</time>
   <time name="total">   38.08   38.11</time>
   <energy>
    <i name="e_fr_energy">   -207.11208621 </i>
    <i name="e_wo_entrp">   -207.11016289 </i>
    <i name="e_0_energy">   -207.11112455 </i>
   </energy>
  </scstep>
  <scstep>
   <time name="dav">   25.95   25.99</time>
   <time name="total">   27.94   27.98</time>
   <energy>
    <i name="e_fr_energy">   -207.11208641 </i>
    <i name="e_wo_entrp">   -207.11016345 </i>
    <i name="e_0_energy">   -207.11112493 </i>
   </energy>
  </scstep>
  <scstep>
   <time name="dav">   25.58   25.58</time>
   <time name="total">   26.36   26.36</time>
   <energy>
    <i name="alphaZ">   1197.98996456 </i>
    <i name="ewald"> -27949.93358272 </i>
    <i name="hartreedc"> -12498.04059709 </i>
    <i name="XCdc">   1242.27949927 </i>
    <i name="pawpsdc">  35564.76479291 </i>
    <i name="pawaedc"> -34954.03252427 </i>
    <i name="eentropy">     -0.00192276 </i>
    <i name="bandstr">  -3151.78956225 </i>
    <i name="atom">  40341.65184589 </i>
    <i name="e_fr_energy">   -207.11208645 </i>
    <i name="e_wo_entrp">   -207.11016369 </i>
    <i name="e_0_energy">   -207.11112507 </i>
   </energy>
  </scstep>
  <structure>
   <crystal>
    <varray name="basis" >
     <v>       8.11456462       0.00000000       0.00000000 </v>
     <v>       0.00000000       8.11456462       0.00000000 </v>
     <v>       0.00000000       0.00000000      12.80574637 </v>
    </varray>
    <i name="volume">    843.20921025 </i>
    <varray name="rec_basis" >
     <v>       0.12323520       0.00000000       0.00000000 </v>
     <v>       0.00000000       0.12323520       0.00000000 </v>
     <v>       0.00000000       0.00000000       0.07808994 </v>
    </varray>
   </crystal>
   <varray name="positions" >
    <v>       0.24847935       0.24847935       0.84918915 </v>
    <v>       0.75152065       0.24847935       0.84918915 </v>
    <v>       0.24847935       0.75152065       0.84918915 </v>
    <v>       0.75152065       0.75152065       0.84918915 </v>
    <v>       0.00000000       0.00000000       0.64992540 </v>
    <v>       0.50000000       0.00000000       0.65306606 </v>
    <v>       0.00000000       0.50000000       0.65306606 </v>
    <v>       0.50000000       0.50000000       0.65585736 </v>
    <v>       0.00000000       0.00000000       0.35007460 </v>
    <v>       0.50000000       0.00000000       0.34693394 </v>
    <v>       0.00000000       0.50000000       0.34693394 </v>
    <v>       0.50000000       0.50000000       0.34414264 </v>
    <v>       0.24847935       0.24847935       0.15081085 </v>
    <v>       0.75152065       0.24847935       0.15081085 </v>
    <v>       0.24847935       0.75152065       0.15081085 </v>
    <v>       0.75152065       0.75152065       0.15081085 </v>
    <v>       0.50000000       0.00000000       0.00000000 </v>
    <v>       0.00000000       0.50000000       0.00000000 </v>
    <v>       0.50000000       0.50000000       0.00000000 </v>
    <v>       0.24553148       0.24553148       0.50000000 </v>
    <v>       0.75446852       0.24553148       0.50000000 </v>
    <v>       0.24553148       0.75446852       0.50000000 </v>
    <v>       0.75446852       0.75446852       0.50000000 </v>
    <v>       0.00000000       0.25069316       0.75112474 </v>
    <v>       0.50000000       0.25069891       0.75104370 </v>
    <v>       0.00000000       0.74930684       0.75112474 </v>
    <v>       0.50000000       0.74930109       0.75104370 </v>
    <v>       0.25069316       0.00000000       0.75112474 </v>
    <v>       0.74930684       0.00000000       0.75112474 </v>
    <v>       0.25069891       0.50000000       0.75104370 </v>
    <v>       0.74930109       0.50000000       0.75104370 </v>
    <v>       0.25069316       0.00000000       0.24887526 </v>
    <v>       0.74930684       0.00000000       0.24887526 </v>
    <v>       0.25069891       0.50000000       0.24895630 </v>
    <v>       0.74930109       0.50000000       0.24895630 </v>
    <v>       0.00000000       0.25069316       0.24887526 </v>
    <v>       0.50000000       0.25069891       0.24895630 </v>
    <v>       0.00000000       0.74930684       0.24887526 </v>
    <v>       0.50000000       0.74930109       0.24895630 </v>
    <v>       0.00000000       0.00000000       0.00000000 </v>
   </varray>
  </structure>
  <varray name="forces" >
   <v>       0.00003263       0.00003263       0.00005876 </v>
   <v>      -0.00003263       0.00003263       0.00005876 </v>
   <v>       0.00003263      -0.00003263       0.00005876 </v>
   <v>      -0.00003263      -0.00003263       0.00005876 </v>
   <v>       0.00000000      -0.00000000      -0.00005500 </v>
   <v>       0.00000000      -0.00000000      -0.00009585 </v>
   <v>       0.00000000      -0.00000000      -0.00009585 </v>
   <v>       0.00000000      -0.00000000      -0.00010396 </v>
   <v>       0.00000000      -0.00000000       0.00005500 </v>
   <v>       0.00000000      -0.00000000       0.00009585 </v>
   <v>       0.00000000      -0.00000000       0.00009585 </v>
   <v>       0.00000000      -0.00000000       0.00010396 </v>
   <v>       0.00003263       0.00003263      -0.00005876 </v>
   <v>      -0.00003263       0.00003263      -0.00005876 </v>
   <v>       0.00003263      -0.00003263      -0.00005876 </v>
   <v>      -0.00003263      -0.00003263      -0.00005876 </v>
   <v>       0.00000000      -0.00000000       0.00000000 </v>
   <v>       0.00000000      -0.00000000       0.00000000 </v>
   <v>       0.00000000      -0.00000000       0.00000000 </v>
   <v>       0.00002689       0.00002689       0.00000000 </v>
   <v>      -0.00002689       0.00002689       0.00000000 </v>
   <v>       0.00002689      -0.00002689       0.00000000 </v>
   <v>      -0.00002689      -0.00002689       0.00000000 </v>
   <v>       0.00000000      -0.00001027      -0.00000951 </v>
   <v>       0.00000000      -0.00000945      -0.00000267 </v>
   <v>       0.00000000       0.00001027      -0.00000951 </v>
   <v>       0.00000000       0.00000945      -0.00000267 </v>
   <v>      -0.00001027      -0.00000000      -0.00000951 </v>
   <v>       0.00001027      -0.00000000      -0.00000951 </v>
   <v>      -0.00000945      -0.00000000      -0.00000267 </v>
   <v>       0.00000945      -0.00000000      -0.00000267 </v>
   <v>      -0.00001027      -0.00000000       0.00000951 </v>
   <v>       0.00001027      -0.00000000       0.00000951 </v>
   <v>      -0.00000945      -0.00000000       0.00000267 </v>
   <v>       0.00000945      -0.00000000       0.00000267 </v>
   <v>       0.00000000      -0.00001027       0.00000951 </v>
   <v>       0.00000000      -0.00000945       0.00000267 </v>
   <v>       0.00000000       0.00001027       0.00000951 </v>
   <v>       0.00000000       0.00000945       0.00000267 </v>
   <v>       0.00000000      -0.00000000       0.00000000 </v>
  </varray>
  <varray name="stress" >
   <v>     -69.32826363       0.00000000      -0.00000000 </v>
   <v>       0.00000000     -69.32826363       0.00000000 </v>
   <v>      -0.00000000       0.00000000     -51.28683792 </v>
  </varray>
  <energy>
   <i name="e_fr_energy">   -207.11208645 </i>
   <i name="e_wo_entrp">   -207.11016369 </i>
   <i name="e_0_energy">   -207.11112507 </i>
  </energy>
  <time name="totalsc">  832.04  832.39</time>
 </calculation>
 <calculation>
  <scstep>
   <time name="dav">   30.58   30.61</time>
   <time name="total">   32.57   32.61</time>
   <energy>
    <i name="alphaZ">   1197.98996456 </i>
    <i name="ewald"> -27949.96127958 </i>
    <i name="hartreedc"> -12498.01530244 </i>
    <i name="XCdc">   1242.27947051 </i>
    <i name="pawpsdc">  35564.76281487 </i>
    <i name="pawaedc"> -34954.03049231 </i>
    <i name="eentropy">     -0.00192272 </i>
    <i name="bandstr">  -3151.78718520 </i>
    <i name="atom">  40341.65184589 </i>
    <i name="e_fr_energy">   -207.11208641 </i>
    <i name="e_wo_entrp">   -207.11016370 </i>
    <i name="e_0_energy">   -207.11112506 </i>
   </energy>
  </scstep>
  <scstep>
   <time name="dav">   25.19   25.22</time>
   <time name="total">   27.17   27.21</time>
   <energy>
    <i name="e_fr_energy">   -207.11208641 </i>
    <i name="e_wo_entrp">   -207.11016387 </i>
    <i name="e_0_energy">   -207.11112514 </i>
   </energy>
  </scstep>
  <scstep>
   <time name="dav">   25.12   25.12</time>
   <time name="total">   27.11   27.11</time>
   <energy>
    <i name="e_fr_energy">   -207.11208641 </i>
    <i name="e_wo_entrp">   -207.11016384 </i>
    <i name="e_0_energy">   -207.11112512 </i>
   </energy>
  </scstep>
  <scstep>
   <time name="dav">   25.04   25.04</time>
   <time name="total">   27.03   27.03</time>
   <energy>
    <i name="e_fr_energy">   -207.11208640 </i>
    <i name="e_wo_entrp">   -207.11016382 </i>
    <i name="e_0_energy">   -207.11112511 </i>
   </energy>
  </scstep>
  <scstep>
   <time name="dav">   24.98   25.01</time>
   <time name="total">   25.76   25.79</time>
   <energy>
    <i name="alphaZ">   1197.98996456 </i>
    <i name="ewald"> -27949.96127958 </i>
    <i name="hartreedc"> -12498.01568923 </i>
    <i name="XCdc">   1242.27943588 </i>
    <i name="pawpsdc">  35564.73776396 </i>
    <i name="pawaedc"> -34954.00543500 </i>
    <i name="eentropy">     -0.00192259 </i>
    <i name="bandstr">  -3151.78677028 </i>
    <i name="atom">  40341.65184589 </i>
    <i name="e_fr_energy">   -207.11208640 </i>
    <i name="e_wo_entrp">   -207.11016381 </i>
    <i name="e_0_energy">   -207.11112510 </i>
   </energy>
  </scstep>
  <structure>
   <crystal>
    <varray name="basis" >
     <v>       8.11456462       0.00000000       0.00000000 </v>
     <v>       0.00000000       8.11456462       0.00000000 </v>
     <v>       0.00000000       0.00000000      12.80574637 </v>
    </varray>
    <i name="volume">    843.20921025 </i>
    <varray name="rec_basis" >
     <v>       0.12323520       0.00000000       0.00000000 </v>
     <v>       0.00000000       0.12323520       0.00000000 </v>
     <v>       0.00000000       0.00000000       0.07808994 </v>
    </varray>
   </crystal>
   <varray name="positions" >
    <v>       0.24847954       0.24847954       0.84918938 </v>
    <v>       0.75152046       0.24847954       0.84918938 </v>
    <v>       0.24847954       0.75152046       0.84918938 </v>
    <v>       0.75152046       0.75152046       0.84918938 </v>
    <v>       0.00000000       1.00000000       0.64992519 </v>
    <v>       0.50000000       1.00000000       0.65306570 </v>
    <v>       0.00000000       0.50000000       0.65306570 </v>
    <v>       0.50000000       0.50000000       0.65585697 </v>
    <v>       0.00000000       1.00000000       0.35007481 </v>
    <v>       0.50000000       1.00000000       0.34693430 </v>
    <v>       0.00000000       0.50000000       0.34693430 </v>
    <v>       0.50000000       0.50000000       0.34414303 </v>
    <v>       0.24847954       0.24847954       0.15081062 </v>
    <v>       0.75152046       0.24847954       0.15081062 </v>
    <v>       0.24847954       0.75152046       0.15081062 </v>
    <v>       0.75152046       0.75152046       0.15081062 </v>
    <v>       0.50000000       1.00000000       0.00000000 </v>
    <v>       0.00000000       0.50000000       0.00000000 </v>
    <v>       0.50000000       0.50000000       0.00000000 </v>
    <v>       0.24553164       0.24553164       0.50000000 </v>
    <v>       0.75446836       0.24553164       0.50000000 </v>
    <v>       0.24553164       0.75446836       0.50000000 </v>
    <v>       0.75446836       0.75446836       0.50000000 </v>
    <v>       0.00000000       0.25069310       0.75112470 </v>
    <v>       0.50000000       0.25069885       0.75104369 </v>
    <v>       0.00000000       0.74930690       0.75112470 </v>
    <v>       0.50000000       0.74930115       0.75104369 </v>
    <v>       0.25069310       1.00000000       0.75112470 </v>
    <v>       0.74930690       1.00000000       0.75112470 </v>
    <v>       0.25069885       0.50000000       0.75104369 </v>
    <v>       0.74930115       0.50000000       0.75104369 </v>
    <v>       0.25069310       1.00000000       0.24887530 </v>
    <v>       0.74930690       1.00000000       0.24887530 </v>
    <v>       0.25069885       0.50000000       0.24895631 </v>
    <v>       0.74930115       0.50000000       0.24895631 </v>
    <v>       0.00000000       0.25069310       0.24887530 </v>
    <v>       0.50000000       0.25069885       0.24895631 </v>
    <v>       0.00000000       0.74930690       0.24887530 </v>
    <v>       0.50000000       0.74930115       0.24895631 </v>
    <v>       0.00000000       1.00000000       0.00000000 </v>
   </varray>
  </structure>
  <varray name="forces" >
   <v>      -0.00005265      -0.00005265      -0.00013160 </v>
   <v>       0.00005265      -0.00005265      -0.00013160 </v>
   <v>      -0.00005265       0.00005265      -0.00013160 </v>
   <v>       0.00005265       0.00005265      -0.00013160 </v>
   <v>       0.00000000      -0.00000000       0.00019152 </v>
   <v>       0.00000000      -0.00000000       0.00015815 </v>
   <v>      -0.00000000      -0.00000000       0.00015815 </v>
   <v>      -0.00000000      -0.00000000       0.00010016 </v>
   <v>       0.00000000      -0.00000000      -0.00019152 </v>
   <v>      -0.00000000      -0.00000000      -0.00015815 </v>
   <v>       0.00000000      -0.00000000      -0.00015815 </v>
   <v>       0.00000000      -0.00000000      -0.00010016 </v>
   <v>      -0.00005265      -0.00005265       0.00013160 </v>
   <v>       0.00005265      -0.00005265       0.00013160 </v>
   <v>      -0.00005265       0.00005265       0.00013160 </v>
   <v>       0.00005265       0.00005265       0.00013160 </v>
   <v>      -0.00000000       0.00000000       0.00000000 </v>
   <v>       0.00000000      -0.00000000      -0.00000000 </v>
   <v>       0.00000000      -0.00000000      -0.00000000 </v>
   <v>       0.00002613       0.00002613      -0.00000000 </v>
   <v>      -0.00002613       0.00002613      -0.00000000 </v>
   <v>       0.00002613      -0.00002613      -0.00000000 </v>
   <v>      -0.00002613      -0.00002613      -0.00000000 </v>
   <v>       0.00000000       0.00000091      -0.00000357 </v>
   <v>      -0.00000000       0.00000135      -0.00000620 </v>
   <v>       0.00000000      -0.00000091      -0.00000357 </v>
   <v>      -0.00000000      -0.00000135      -0.00000620 </v>
   <v>       0.00000091       0.00000000      -0.00000357 </v>
   <v>      -0.00000091      -0.00000000      -0.00000357 </v>
   <v>       0.00000135      -0.00000000      -0.00000620 </v>
   <v>      -0.00000135      -0.00000000      -0.00000620 </v>
   <v>       0.00000091      -0.00000000       0.00000357 </v>
   <v>      -0.00000091      -0.00000000       0.00000357 </v>
   <v>       0.00000135       0.00000000       0.00000620 </v>
   <v>      -0.00000135       0.00000000       0.00000620 </v>
   <v>       0.00000000       0.00000091       0.00000357 </v>
   <v>      -0.00000000       0.00000135       0.00000620 </v>
   <v>       0.00000000      -0.00000091       0.00000357 </v>
   <v>       0.00000000      -0.00000135       0.00000620 </v>
   <v>      -0.00000000       0.00000000      -0.00000000 </v>
  </varray>
  <varray name="stress" >
   <v>     -69.33311331       0.00000000       0.00000000 </v>
   <v>       0.00000000     -69.33311331       0.00000000 </v>
   <v>      -0.00000000       0.00000000     -51.29328930 </v>
  </varray>
  <energy>
   <i name="e_fr_energy">   -207.11208640 </i>
   <i name="e_wo_entrp">   -207.11016381 </i>
   <i name="e_0_energy">   -207.11112510 </i>
  </energy>
  <time name="totalsc">  170.10  170.23</time>
 </calculation>
 <calculation>
  <scstep>
   <time name="dav">   29.24   29.26</time>
   <time name="total">   31.23   31.26</time>
   <energy>
    <i name="alphaZ">   1197.98996456 </i>
    <i name="ewald"> -27949.94428732 </i>
    <i name="hartreedc"> -12498.03209148 </i>
    <i name="XCdc">   1242.27949611 </i>
    <i name="pawpsdc">  35564.73683550 </i>
    <i name="pawaedc"> -34954.00449658 </i>
    <i name="eentropy">     -0.00192259 </i>
    <i name="bandstr">  -3151.78743049 </i>
    <i name="atom">  40341.65184589 </i>
    <i name="e_fr_energy">   -207.11208640 </i>
    <i name="e_wo_entrp">   -207.11016381 </i>
    <i name="e_0_energy">   -207.11112510 </i>
   </energy>
  </scstep>
  <scstep>
   <time name="dav">   24.97   24.99</time>
   <time name="total">   26.96   26.98</time>
   <energy>
    <i name="e_fr_energy">   -207.11208640 </i>
    <i name="e_wo_entrp">   -207.11016372 </i>
    <i name="e_0_energy">   -207.11112506 </i>
   </energy>
  </scstep>
  <scstep>
   <time name="dav">   24.74   24.75</time>
   <time name="total">   26.73   26.73</time>
   <energy>
    <i name="e_fr_energy">   -207.11208640 </i>
    <i name="e_wo_entrp">   -207.11016372 </i>
    <i name="e_0_energy">   -207.11112506 </i>
   </energy>
  </scstep>
  <scstep>
   <time name="dav">   24.68   24.70</time>
   <time name="total">   26.67   26.69</time>
   <energy>
    <i name="e_fr_energy">   -207.11208641 </i>
    <i name="e_wo_entrp">   -207.11016372 </i>
    <i name="e_0_energy">   -207.11112506 </i>
   </energy>
  </scstep>
  <scstep>
   <time name="dav">   24.58   24.60</time>
   <time name="total">   25.36   25.38</time>
   <energy>
    <i name="alphaZ">   1197.98996456 </i>
    <i name="ewald"> -27949.94428732 </i>
    <i name="hartreedc"> -12498.03190020 </i>
    <i name="XCdc">   1242.27952076 </i>
    <i name="pawpsdc">  35564.74294031 </i>
    <i name="pawaedc"> -34954.01066458 </i>
    <i name="eentropy">     -0.00192268 </i>
    <i name="bandstr">  -3151.78758313 </i>
    <i name="atom">  40341.65184589 </i>
    <i name="e_fr_energy">   -207.11208640 </i>
    <i name="e_wo_entrp">   -207.11016372 </i>
    <i name="e_0_energy">   -207.11112506 </i>
   </energy>
  </scstep>
  <structure>
   <crystal>
    <varray name="basis" >
     <v>       8.11456462       0.00000000       0.00000000 </v>
     <v>       0.00000000       8.11456462       0.00000000 </v>
     <v>       0.00000000       0.00000000      12.80574637 </v>
    </varray>
    <i name="volume">    843.20921025 </i>
    <varray name="rec_basis" >
     <v>       0.12323520       0.00000000       0.00000000 </v>
     <v>       0.00000000       0.12323520       0.00000000 </v>
     <v>       0.00000000       0.00000000       0.07808994 </v>
    </varray>
   </crystal>
   <varray name="positions" >
    <v>       0.24847943       0.24847943       0.84918924 </v>
    <v>       0.75152057       0.24847943       0.84918924 </v>
    <v>       0.24847943       0.75152057       0.84918924 </v>
    <v>       0.75152057       0.75152057       0.84918924 </v>
    <v>       0.00000000       0.00000000       0.64992532 </v>
    <v>       0.50000000       0.00000000       0.65306592 </v>
    <v>       0.00000000       0.50000000       0.65306592 </v>
    <v>       0.50000000       0.50000000       0.65585721 </v>
    <v>       0.00000000       0.00000000       0.35007468 </v>
    <v>       0.50000000       0.00000000       0.34693408 </v>
    <v>       0.00000000       0.50000000       0.34693408 </v>
    <v>       0.50000000       0.50000000       0.34414279 </v>
    <v>       0.24847943       0.24847943       0.15081076 </v>
    <v>       0.75152057       0.24847943       0.15081076 </v>
    <v>       0.24847943       0.75152057       0.15081076 </v>
    <v>       0.75152057       0.75152057       0.15081076 </v>
    <v>       0.50000000       0.00000000       0.00000000 </v>
    <v>       0.00000000       0.50000000       0.00000000 </v>
    <v>       0.50000000       0.50000000       0.00000000 </v>
    <v>       0.24553154       0.24553154       0.50000000 </v>
    <v>       0.75446846       0.24553154       0.50000000 </v>
    <v>       0.24553154       0.75446846       0.50000000 </v>
    <v>       0.75446846       0.75446846       0.50000000 </v>
    <v>       0.00000000       0.25069313       0.75112472 </v>
    <v>       0.50000000       0.25069889       0.75104370 </v>
    <v>       0.00000000       0.74930687       0.75112472 </v>
    <v>       0.50000000       0.74930111       0.75104370 </v>
    <v>       0.25069313       0.00000000       0.75112472 </v>
    <v>       0.74930687       0.00000000       0.75112472 </v>
    <v>       0.25069889       0.50000000       0.75104370 </v>
    <v>       0.74930111       0.50000000       0.75104370 </v>
    <v>       0.25069313       0.00000000       0.24887528 </v>
    <v>       0.74930687       0.00000000       0.24887528 </v>
    <v>       0.25069889       0.50000000       0.24895630 </v>
    <v>       0.74930111       0.50000000       0.24895630 </v>
    <v>       0.00000000       0.25069313       0.24887528 </v>
    <v>       0.50000000       0.25069889       0.24895630 </v>
    <v>       0.00000000       0.74930687       0.24887528 </v>
    <v>       0.50000000       0.74930111       0.24895630 </v>
    <v>       0.00000000       0.00000000       0.00000000 </v>
   </varray>
  </structure>
  <varray name="forces" >
   <v>       0.00002704       0.00002704       0.00002102 </v>
   <v>      -0.00002704       0.00002704       0.00002102 </v>
   <v>       0.00002704      -0.00002704       0.00002102 </v>
   <v>      -0.00002704      -0.00002704       0.00002102 </v>
   <v>      -0.00000000      -0.00000000       0.00003054 </v>
   <v>      -0.00000000      -0.00000000      -0.00006958 </v>
   <v>      -0.00000000      -0.00000000      -0.00006958 </v>
   <v>      -0.00000000      -0.00000000      -0.00012644 </v>
   <v>      -0.00000000      -0.00000000      -0.00003054 </v>
   <v>      -0.00000000      -0.00000000       0.00006958 </v>
   <v>      -0.00000000      -0.00000000       0.00006958 </v>
   <v>      -0.00000000      -0.00000000       0.00012644 </v>
   <v>       0.00002704       0.00002704      -0.00002102 </v>
   <v>      -0.00002704       0.00002704      -0.00002102 </v>
   <v>       0.00002704      -0.00002704      -0.00002102 </v>
   <v>      -0.00002704      -0.00002704      -0.00002102 </v>
   <v>      -0.00000000      -0.00000000      -0.00000000 </v>
   <v>      -0.00000000      -0.00000000      -0.00000000 </v>
   <v>      -0.00000000      -0.00000000      -0.00000000 </v>
   <v>       0.00002764       0.00002764      -0.00000000 </v>
   <v>      -0.00002764       0.00002764      -0.00000000 </v>
   <v>       0.00002764      -0.00002764      -0.00000000 </v>
   <v>      -0.00002764      -0.00002764      -0.00000000 </v>
   <v>      -0.00000000      -0.00001101      -0.00001551 </v>
   <v>      -0.00000000      -0.00000954      -0.00000298 </v>
   <v>      -0.00000000       0.00001101      -0.00001551 </v>
   <v>      -0.00000000       0.00000954      -0.00000298 </v>
   <v>      -0.00001101      -0.00000000      -0.00001551 </v>
   <v>       0.00001101      -0.00000000      -0.00001551 </v>
   <v>      -0.00000954      -0.00000000      -0.00000298 </v>
   <v>       0.00000954      -0.00000000      -0.00000298 </v>
   <v>      -0.00001101      -0.00000000       0.00001551 </v>
   <v>       0.00001101      -0.00000000       0.00001551 </v>
   <v>      -0.00000954      -0.00000000       0.00000298 </v>
   <v>       0.00000954      -0.00000000       0.00000298 </v>
   <v>      -0.00000000      -0.00001101       0.00001551 </v>
   <v>      -0.00000000      -0.00000954       0.00000298 </v>
   <v>      -0.00000000       0.00001101       0.00001551 </v>
   <v>      -0.00000000       0.00000954       0.00000298 </v>
   <v>      -0.00000000      -0.00000000      -0.00000000 </v>
  </varray>
  <varray name="stress" >
   <v>     -69.33243286       0.00000000       0.00000000 </v>
   <v>       0.00000000     -69.33243286       0.00000000 </v>
   <v>       0.00000000       0.00000000     -51.29247310 </v>
  </varray>
  <energy>
   <i name="e_fr_energy">   -207.11208640 </i>
   <i name="e_wo_entrp">   -207.11016372 </i>
   <i name="e_0_energy">   -207.11112506 </i>
  </energy>
  <time name="totalsc">  167.50  167.61</time>
 </calculation>
 <calculation>
  <scstep>
   <time name="dav">   24.60   24.62</time>
   <time name="total">   26.59   26.61</time>
   <energy>
    <i name="alphaZ">   1197.98996456 </i>
    <i name="ewald"> -27949.94950414 </i>
    <i name="hartreedc"> -12498.02693277 </i>
    <i name="XCdc">   1242.27950669 </i>
    <i name="pawpsdc">  35564.74319444 </i>
    <i name="pawaedc"> -34954.01092389 </i>
    <i name="eentropy">     -0.00192268 </i>
    <i name="bandstr">  -3151.78731450 </i>
    <i name="atom">  40341.65184589 </i>
    <i name="e_fr_energy">   -207.11208640 </i>
    <i name="e_wo_entrp">   -207.11016372 </i>
    <i name="e_0_energy">   -207.11112506 </i>
   </energy>
  </scstep>
  <scstep>
   <time name="dav">   24.52   24.52</time>
   <time name="total">   26.51   26.52</time>
   <energy>
    <i name="e_fr_energy">   -207.11208640 </i>
    <i name="e_wo_entrp">   -207.11016374 </i>
    <i name="e_0_energy">   -207.11112507 </i>
   </energy>
  </scstep>
  <scstep>
   <time name="dav">   24.27   24.27</time>
   <time name="total">   26.26   26.26</time>
   <energy>
    <i name="e_fr_energy">   -207.11208640 </i>
    <i name="e_wo_entrp">   -207.11016375 </i>
    <i name="e_0_energy">   -207.11112507 </i>
   </energy>
  </scstep>
  <scstep>
   <time name="dav">   24.28   24.28</time>
   <time name="total">   26.27   26.27</time>
   <energy>
    <i name="e_fr_energy">   -207.11208640 </i>
    <i name="e_wo_entrp">   -207.11016375 </i>
    <i name="e_0_energy">   -207.11112507 </i>
   </energy>
  </scstep>
  <scstep>
   <time name="dav">   24.28   24.28</time>
   <time name="total">   25.06   25.06</time>
   <energy>
    <i name="alphaZ">   1197.98996456 </i>
    <i name="ewald"> -27949.94950414 </i>
    <i name="hartreedc"> -12498.02697657 </i>
    <i name="XCdc">   1242.27949969 </i>
    <i name="pawpsdc">  35564.74116237 </i>
    <i name="pawaedc"> -34954.00887496 </i>
    <i name="eentropy">     -0.00192266 </i>
    <i name="bandstr">  -3151.78728059 </i>
    <i name="atom">  40341.65184589 </i>
    <i name="e_fr_energy">   -207.11208640 </i>
    <i name="e_wo_entrp">   -207.11016374 </i>
    <i name="e_0_energy">   -207.11112507 </i>
   </energy>
  </scstep>
  <structure>
   <crystal>
    <varray name="basis" >
     <v>       8.11456462       0.00000000       0.00000000 </v>
     <v>       0.00000000       8.11456462       0.00000000 </v>
     <v>       0.00000000       0.00000000      12.80574637 </v>
    </varray>
    <i name="volume">    843.20921025 </i>
    <varray name="rec_basis" >
     <v>       0.12323520       0.00000000       0.00000000 </v>
     <v>       0.00000000       0.12323520       0.00000000 </v>
     <v>       0.00000000       0.00000000       0.07808994 </v>
    </varray>
   </crystal>
   <varray name="positions" >
    <v>       0.24847946       0.24847946       0.84918928 </v>
    <v>       0.75152054       0.24847946       0.84918928 </v>
    <v>       0.24847946       0.75152054       0.84918928 </v>
    <v>       0.75152054       0.75152054       0.84918928 </v>
    <v>       0.00000000       1.00000000       0.64992528 </v>
    <v>       0.50000000       1.00000000       0.65306585 </v>
    <v>       0.00000000       0.50000000       0.65306585 </v>
    <v>       0.50000000       0.50000000       0.65585714 </v>
    <v>       0.00000000       1.00000000       0.35007472 </v>
    <v>       0.50000000       1.00000000       0.34693415 </v>
    <v>       0.00000000       0.50000000       0.34693415 </v>
    <v>       0.50000000       0.50000000       0.34414286 </v>
    <v>       0.24847946       0.24847946       0.15081072 </v>
    <v>       0.75152054       0.24847946       0.15081072 </v>
    <v>       0.24847946       0.75152054       0.15081072 </v>
    <v>       0.75152054       0.75152054       0.15081072 </v>
    <v>       0.50000000       1.00000000       0.00000000 </v>
    <v>       0.00000000       0.50000000       0.00000000 </v>
    <v>       0.50000000       0.50000000       0.00000000 </v>
    <v>       0.24553157       0.24553157       0.50000000 </v>
    <v>       0.75446843       0.24553157       0.50000000 </v>
    <v>       0.24553157       0.75446843       0.50000000 </v>
    <v>       0.75446843       0.75446843       0.50000000 </v>
    <v>       0.00000000       0.25069312       0.75112472 </v>
    <v>       0.50000000       0.25069887       0.75104370 </v>
    <v>       0.00000000       0.74930688       0.75112472 </v>
    <v>       0.50000000       0.74930113       0.75104370 </v>
    <v>       0.25069312       1.00000000       0.75112472 </v>
    <v>       0.74930688       1.00000000       0.75112472 </v>
    <v>       0.25069887       0.50000000       0.75104370 </v>
    <v>       0.74930113       0.50000000       0.75104370 </v>
    <v>       0.25069312       1.00000000       0.24887528 </v>
    <v>       0.74930688       1.00000000       0.24887528 </v>
    <v>       0.25069887       0.50000000       0.24895630 </v>
    <v>       0.74930113       0.50000000       0.24895630 </v>
    <v>       0.00000000       0.25069312       0.24887528 </v>
    <v>       0.50000000       0.25069887       0.24895630 </v>
    <v>       0.00000000       0.74930688       0.24887528 </v>
    <v>       0.50000000       0.74930113       0.24895630 </v>
    <v>       0.00000000       1.00000000       0.00000000 </v>
   </varray>
  </structure>
  <varray name="forces" >
   <v>      -0.00001877      -0.00001877      -0.00006363 </v>
   <v>       0.00001877      -0.00001877      -0.00006363 </v>
   <v>      -0.00001877       0.00001877      -0.00006363 </v>
   <v>       0.00001877       0.00001877      -0.00006363 </v>
   <v>       0.00000000      -0.00000000       0.00011427 </v>
   <v>       0.00000000      -0.00000000       0.00006598 </v>
   <v>       0.00000000      -0.00000000       0.00006598 </v>
   <v>       0.00000000      -0.00000000       0.00001581 </v>
   <v>       0.00000000      -0.00000000      -0.00011427 </v>
   <v>       0.00000000      -0.00000000      -0.00006598 </v>
   <v>       0.00000000      -0.00000000      -0.00006598 </v>
   <v>       0.00000000      -0.00000000      -0.00001581 </v>
   <v>      -0.00001877      -0.00001877       0.00006363 </v>
   <v>       0.00001877      -0.00001877       0.00006363 </v>
   <v>      -0.00001877       0.00001877       0.00006363 </v>
   <v>       0.00001877       0.00001877       0.00006363 </v>
   <v>       0.00000000      -0.00000000       0.00000000 </v>
   <v>       0.00000000      -0.00000000       0.00000000 </v>
   <v>       0.00000000      -0.00000000       0.00000000 </v>
   <v>       0.00002555       0.00002555       0.00000000 </v>
   <v>      -0.00002555       0.00002555       0.00000000 </v>
   <v>       0.00002555      -0.00002555       0.00000000 </v>
   <v>      -0.00002555      -0.00002555       0.00000000 </v>
   <v>       0.00000000      -0.00000423      -0.00000807 </v>
   <v>       0.00000000      -0.00000317      -0.00000355 </v>
   <v>       0.00000000       0.00000423      -0.00000807 </v>
   <v>       0.00000000       0.00000317      -0.00000355 </v>
   <v>      -0.00000423      -0.00000000      -0.00000807 </v>
   <v>       0.00000423      -0.00000000      -0.00000807 </v>
   <v>      -0.00000317      -0.00000000      -0.00000355 </v>
   <v>       0.00000317      -0.00000000      -0.00000355 </v>
   <v>      -0.00000423      -0.00000000       0.00000807 </v>
   <v>       0.00000423      -0.00000000       0.00000807 </v>
   <v>      -0.00000317      -0.00000000       0.00000355 </v>
   <v>       0.00000317      -0.00000000       0.00000355 </v>
   <v>       0.00000000      -0.00000423       0.00000807 </v>
   <v>       0.00000000      -0.00000317       0.00000355 </v>
   <v>       0.00000000       0.00000423       0.00000807 </v>
   <v>       0.00000000       0.00000317       0.00000355 </v>
   <v>       0.00000000      -0.00000000       0.00000000 </v>
  </varray>
  <varray name="stress" >
   <v>     -69.33282226       0.00000000       0.00000000 </v>
   <v>       0.00000000     -69.33282226       0.00000000 </v>
   <v>       0.00000000       0.00000000     -51.29285567 </v>
  </varray>
  <energy>
   <i name="e_fr_energy">   -207.11208640 </i>
   <i name="e_wo_entrp">   -207.11016374 </i>
   <i name="e_0_energy">   -207.11112507 </i>
  </energy>
  <time name="totalsc">  161.22  161.26</time>
 </calculation>
 <calculation>
  <scstep>
   <time name="dav">   24.19   24.19</time>
   <time name="total">   26.18   26.19</time>
   <energy>
    <i name="alphaZ">   1197.98996456 </i>
    <i name="ewald"> -27949.94703448 </i>
    <i name="hartreedc"> -12498.02934395 </i>
    <i name="XCdc">   1242.27950732 </i>
    <i name="pawpsdc">  35564.74104765 </i>
    <i name="pawaedc"> -34954.00875807 </i>
    <i name="eentropy">     -0.00192266 </i>
    <i name="bandstr">  -3151.78739266 </i>
    <i name="atom">  40341.65184589 </i>
    <i name="e_fr_energy">   -207.11208640 </i>
    <i name="e_wo_entrp">   -207.11016374 </i>
    <i name="e_0_energy">   -207.11112507 </i>
   </energy>
  </scstep>
  <scstep>
   <time name="dav">   24.06   24.07</time>
   <time name="total">   26.05   26.06</time>
   <energy>
    <i name="e_fr_energy">   -207.11208640 </i>
    <i name="e_wo_entrp">   -207.11016373 </i>
    <i name="e_0_energy">   -207.11112507 </i>
   </energy>
  </scstep>
  <scstep>
   <time name="dav">   24.04   24.05</time>
   <time name="total">   26.04   26.05</time>
   <energy>
    <i name="e_fr_energy">   -207.11208640 </i>
    <i name="e_wo_entrp">   -207.11016373 </i>
    <i name="e_0_energy">   -207.11112507 </i>
   </energy>
  </scstep>
  <scstep>
   <time name="dav">   24.05   24.06</time>
   <time name="total">   26.04   26.05</time>
   <energy>
    <i name="e_fr_energy">   -207.11208640 </i>
    <i name="e_wo_entrp">   -207.11016373 </i>
    <i name="e_0_energy">   -207.11112507 </i>
   </energy>
  </scstep>
  <scstep>
   <time name="dav">   24.06   24.06</time>
   <time name="total">   24.85   24.85</time>
   <energy>
    <i name="alphaZ">   1197.98996456 </i>
    <i name="ewald"> -27949.94703448 </i>
    <i name="hartreedc"> -12498.02932129 </i>
    <i name="XCdc">   1242.27951116 </i>
    <i name="pawpsdc">  35564.74189572 </i>
    <i name="pawaedc"> -34954.00961264 </i>
    <i name="eentropy">     -0.00192267 </i>
    <i name="bandstr">  -3151.78741265 </i>
    <i name="atom">  40341.65184589 </i>
    <i name="e_fr_energy">   -207.11208640 </i>
    <i name="e_wo_entrp">   -207.11016373 </i>
    <i name="e_0_energy">   -207.11112507 </i>
   </energy>
  </scstep>
  <structure>
   <crystal>
    <varray name="basis" >
     <v>       8.11456462       0.00000000       0.00000000 </v>
     <v>       0.00000000       8.11456462       0.00000000 </v>
     <v>       0.00000000       0.00000000      12.80574637 </v>
    </varray>
    <i name="volume">    843.20921025 </i>
    <varray name="rec_basis" >
     <v>       0.12323520       0.00000000       0.00000000 </v>
     <v>       0.00000000       0.12323520       0.00000000 </v>
     <v>       0.00000000       0.00000000       0.07808994 </v>
    </varray>
   </crystal>
   <varray name="positions" >
    <v>       0.24847944       0.24847944       0.84918926 </v>
    <v>       0.75152056       0.24847944       0.84918926 </v>
    <v>       0.24847944       0.75152056       0.84918926 </v>
    <v>       0.75152056       0.75152056       0.84918926 </v>
    <v>       0.00000000       0.00000000       0.64992530 </v>
    <v>       0.50000000       0.00000000       0.65306589 </v>
    <v>       0.00000000       0.50000000       0.65306589 </v>
    <v>       0.50000000       0.50000000       0.65585717 </v>
    <v>       0.00000000       0.00000000       0.35007470 </v>
    <v>       0.50000000       0.00000000       0.34693411 </v>
    <v>       0.00000000       0.50000000       0.34693411 </v>
    <v>       0.50000000       0.50000000       0.34414283 </v>
    <v>       0.24847944       0.24847944       0.15081074 </v>
    <v>       0.75152056       0.24847944       0.15081074 </v>
    <v>       0.24847944       0.75152056       0.15081074 </v>
    <v>       0.75152056       0.75152056       0.15081074 </v>
    <v>       0.50000000       0.00000000       0.00000000 </v>
    <v>       0.00000000       0.50000000       0.00000000 </v>
    <v>       0.50000000       0.50000000       0.00000000 </v>
    <v>       0.24553156       0.24553156       0.50000000 </v>
    <v>       0.75446844       0.24553156       0.50000000 </v>
    <v>       0.24553156       0.75446844       0.50000000 </v>
    <v>       0.75446844       0.75446844       0.50000000 </v>
    <v>       0.00000000       0.25069313       0.75112472 </v>
    <v>       0.50000000       0.25069888       0.75104370 </v>
    <v>       0.00000000       0.74930687       0.75112472 </v>
    <v>       0.50000000       0.74930112       0.75104370 </v>
    <v>       0.25069313       0.00000000       0.75112472 </v>
    <v>       0.74930687       0.00000000       0.75112472 </v>
    <v>       0.25069888       0.50000000       0.75104370 </v>
    <v>       0.74930112       0.50000000       0.75104370 </v>
    <v>       0.25069313       0.00000000       0.24887528 </v>
    <v>       0.74930687       0.00000000       0.24887528 </v>
    <v>       0.25069888       0.50000000       0.24895630 </v>
    <v>       0.74930112       0.50000000       0.24895630 </v>
    <v>       0.00000000       0.25069313       0.24887528 </v>
    <v>       0.50000000       0.25069888       0.24895630 </v>
    <v>       0.00000000       0.74930687       0.24887528 </v>
    <v>       0.50000000       0.74930112       0.24895630 </v>
    <v>       0.00000000       0.00000000       0.00000000 </v>
   </varray>
  </structure>
  <varray name="forces" >
   <v>       0.00001084       0.00001084      -0.00000936 </v>
   <v>      -0.00001084       0.00001084      -0.00000936 </v>
   <v>       0.00001084      -0.00001084      -0.00000936 </v>
   <v>      -0.00001084      -0.00001084      -0.00000936 </v>
   <v>       0.00000000      -0.00000000       0.00006144 </v>
   <v>      -0.00000000      -0.00000000      -0.00002102 </v>
   <v>      -0.00000000      -0.00000000      -0.00002102 </v>
   <v>      -0.00000000      -0.00000000      -0.00007609 </v>
   <v>      -0.00000000      -0.00000000      -0.00006144 </v>
   <v>       0.00000000      -0.00000000       0.00002102 </v>
   <v>       0.00000000      -0.00000000       0.00002102 </v>
   <v>       0.00000000      -0.00000000       0.00007609 </v>
   <v>       0.00001084       0.00001084       0.00000936 </v>
   <v>      -0.00001084       0.00001084       0.00000936 </v>
   <v>       0.00001084      -0.00001084       0.00000936 </v>
   <v>      -0.00001084      -0.00001084       0.00000936 </v>
   <v>      -0.00000000      -0.00000000       0.00000000 </v>
   <v>       0.00000000      -0.00000000       0.00000000 </v>
   <v>      -0.00000000      -0.00000000       0.00000000 </v>
   <v>       0.00002642       0.00002642       0.00000000 </v>
   <v>      -0.00002642       0.00002642       0.00000000 </v>
   <v>       0.00002642      -0.00002642       0.00000000 </v>
   <v>      -0.00002642      -0.00002642       0.00000000 </v>
   <v>       0.00000000      -0.00000714      -0.00001095 </v>
   <v>       0.00000000      -0.00000589      -0.00000327 </v>
   <v>      -0.00000000       0.00000714      -0.00001095 </v>
   <v>       0.00000000       0.00000589      -0.00000327 </v>
   <v>      -0.00000714      -0.00000000      -0.00001095 </v>
   <v>       0.00000714      -0.00000000      -0.00001095 </v>
   <v>      -0.00000589      -0.00000000      -0.00000327 </v>
   <v>       0.00000589      -0.00000000      -0.00000327 </v>
   <v>      -0.00000714      -0.00000000       0.00001095 </v>
   <v>       0.00000714      -0.00000000       0.00001095 </v>
   <v>      -0.00000589      -0.00000000       0.00000327 </v>
   <v>       0.00000589      -0.00000000       0.00000327 </v>
   <v>       0.00000000      -0.00000714       0.00001095 </v>
   <v>       0.00000000      -0.00000589       0.00000327 </v>
   <v>      -0.00000000       0.00000714       0.00001095 </v>
   <v>      -0.00000000       0.00000589       0.00000327 </v>
   <v>       0.00000000      -0.00000000       0.00000000 </v>
  </varray>
  <varray name="stress" >
   <v>     -69.33265932       0.00000000       0.00000000 </v>
   <v>       0.00000000     -69.33265932       0.00000000 </v>
   <v>       0.00000000       0.00000000     -51.29270556 </v>
  </varray>
  <energy>
   <i name="e_fr_energy">   -207.11208640 </i>
   <i name="e_wo_entrp">   -207.11016373 </i>
   <i name="e_0_energy">   -207.11112507 </i>
  </energy>
  <time name="totalsc">  158.07  158.10</time>
  <eigenvalues>
   <array>
    <dimension dim="1">band</dimension>
    <dimension dim="2">kpoint</dimension>
    <dimension dim="3">spin</dimension>
    <field>eigene</field>
    <field>occ</field>
    <set>
     <set comment="spin 1">
      <set comment="kpoint 1">
       <r>  -17.9884    1.0000 </r>
       <r>  -17.9877    1.0000 </r>
       <r>  -17.9840    1.0000 </r>
       <r>  -17.9840    1.0000 </r>
       <r>  -17.9780    1.0000 </r>
       <r>  -17.9780    1.0000 </r>
       <r>  -17.9424    1.0000 </r>
       <r>  -17.9398    1.0000 </r>
       <r>  -17.9385    1.0000 </r>
       <r>  -17.9385    1.0000 </r>
       <r>  -17.9373    1.0000 </r>
       <r>  -17.9345    1.0000 </r>
       <r>  -17.9340    1.0000 </r>
       <r>  -17.9340    1.0000 </r>
       <r>  -17.8872    1.0000 </r>
       <r>  -17.8748    1.0000 </r>
       <r>  -17.8748    1.0000 </r>
       <r>  -17.8712    1.0000 </r>
       <r>  -17.8698    1.0000 </r>
       <r>  -17.8698    1.0000 </r>
       <r>  -17.8681    1.0000 </r>
       <r>  -17.8668    1.0000 </r>
       <r>  -17.8668    1.0000 </r>
       <r>  -17.8666    1.0000 </r>
       <r>  -17.8666    1.0000 </r>
       <r>  -17.8621    1.0000 </r>
       <r>  -17.8597    1.0000 </r>
       <r>  -17.8581    1.0000 </r>
       <r>  -17.8575    1.0000 </r>
       <r>  -17.8551    1.0000 </r>
       <r>  -17.8547    1.0000 </r>
       <r>  -17.8538    1.0000 </r>
       <r>  -17.8538    1.0000 </r>
       <r>  -17.8530    1.0000 </r>
       <r>  -17.8527    1.0000 </r>
       <r>  -17.8527    1.0000 </r>
       <r>  -17.8492    1.0000 </r>
       <r>  -17.8470    1.0000 </r>
       <r>  -17.8470    1.0000 </r>
       <r>  -17.8453    1.0000 </r>
       <r>  -17.8451    1.0000 </r>
       <r>  -17.8440    1.0000 </r>
       <r>  -17.8421    1.0000 </r>
       <r>  -17.8336    1.0000 </r>
       <r>  -17.8291    1.0000 </r>
       <r>  -17.8287    1.0000 </r>
       <r>  -17.8245    1.0000 </r>
       <r>  -17.8245    1.0000 </r>
       <r>  -17.8244    1.0000 </r>
       <r>  -17.8237    1.0000 </r>
       <r>  -17.8227    1.0000 </r>
       <r>  -17.8218    1.0000 </r>
       <r>  -17.8202    1.0000 </r>
       <r>  -17.8192    1.0000 </r>
       <r>  -17.8192    1.0000 </r>
       <r>  -17.8188    1.0000 </r>
       <r>  -17.8185    1.0000 </r>
       <r>  -17.8185    1.0000 </r>
       <r>  -17.8157    1.0000 </r>
       <r>  -17.8146    1.0000 </r>
       <r>  -17.8146    1.0000 </r>
       <r>  -17.8139    1.0000 </r>
       <r>  -17.8139    1.0000 </r>
       <r>  -17.8094    1.0000 </r>
       <r>  -17.8094    1.0000 </r>
       <r>  -17.8093    1.0000 </r>
       <r>  -17.8085    1.0000 </r>
       <r>  -17.8073    1.0000 </r>
       <r>  -17.8070    1.0000 </r>
       <r>  -17.8054    1.0000 </r>
       <r>  -17.8025    1.0000 </r>
       <r>  -17.8019    1.0000 </r>
       <r>  -17.8015    1.0000 </r>
       <r>  -17.8015    1.0000 </r>
       <r>  -17.7960    1.0000 </r>
       <r>  -17.7960    1.0000 </r>
       <r>  -17.7918    1.0000 </r>
       <r>  -17.7915    1.0000 </r>
       <r>  -17.7904    1.0000 </r>
       <r>  -17.7903    1.0000 </r>
       <r>  -13.7667    1.0000 </r>
       <r>  -13.7582    1.0000 </r>
       <r>  -12.6882    1.0000 </r>
       <r>  -12.6879    1.0000 </r>
       <r>  -12.6879    1.0000 </r>
       <r>  -12.6871    1.0000 </r>
       <r>  -12.6838    1.0000 </r>
       <r>  -12.6835    1.0000 </r>
       <r>  -12.6835    1.0000 </r>
       <r>  -12.6829    1.0000 </r>
       <r>  -12.4382    1.0000 </r>
       <r>  -12.4382    1.0000 </r>
       <r>  -12.4362    1.0000 </r>
       <r>  -12.4362    1.0000 </r>
       <r>  -11.7980    1.0000 </r>
       <r>  -11.7978    1.0000 </r>
       <r>   -6.8520    1.0000 </r>
       <r>   -6.3928    1.0000 </r>
       <r>   -5.8388    1.0000 </r>
       <r>   -5.8132    1.0000 </r>
       <r>   -5.8132    1.0000 </r>
       <r>   -5.7152    1.0000 </r>
       <r>   -5.7146    1.0000 </r>
       <r>   -5.6252    1.0000 </r>
       <r>   -5.5167    1.0000 </r>
       <r>   -5.5106    1.0000 </r>
       <r>   -5.5071    1.0000 </r>
       <r>   -5.4274    1.0000 </r>
       <r>   -5.2912    1.0000 </r>
       <r>   -5.1321    1.0000 </r>
       <r>   -5.1321    1.0000 </r>
       <r>   -5.1221    1.0000 </r>
       <r>   -5.1163    1.0000 </r>
       <r>   -4.8128    1.0000 </r>
       <r>   -4.8056    1.0000 </r>
       <r>   -4.7965    1.0000 </r>
       <r>   -4.7965    1.0000 </r>
       <r>   -4.4667    1.0000 </r>
       <r>   -3.5266    1.0000 </r>
       <r>   -3.0538    1.0000 </r>
       <r>   -0.0145    1.0000 </r>
       <r>   -0.0145    1.0000 </r>
       <r>    0.0349    1.0000 </r>
       <r>    0.0349    1.0000 </r>
       <r>    0.4054    1.0000 </r>
       <r>    0.4054    1.0000 </r>
       <r>    0.6909    1.0000 </r>
       <r>    0.6909    1.0000 </r>
       <r>    0.6977    1.0000 </r>
       <r>    0.7263    1.0000 </r>
       <r>    0.7263    1.0000 </r>
       <r>    0.7352    1.0000 </r>
       <r>    0.8254    1.0000 </r>
       <r>    0.8254    1.0000 </r>
       <r>    0.8283    1.0000 </r>
       <r>    0.8325    1.0000 </r>
       <r>    0.9624    1.0000 </r>
       <r>    0.9891    1.0000 </r>
       <r>    1.2087    1.0000 </r>
       <r>    1.2130    1.0000 </r>
       <r>    1.2133    1.0000 </r>
       <r>    1.2133    1.0000 </r>
       <r>    1.2312    1.0000 </r>
       <r>    1.2345    1.0000 </r>
       <r>    1.2361    1.0000 </r>
       <r>    1.2361    1.0000 </r>
       <r>    1.6002    1.0000 </r>
       <r>    1.6243    1.0000 </r>
       <r>    1.7393    1.0000 </r>
       <r>    1.7393    1.0000 </r>
       <r>    1.7401    1.0000 </r>
       <r>    1.7409    1.0000 </r>
       <r>    2.5380    1.0000 </r>
       <r>    2.5452    1.0000 </r>
       <r>    2.5886    1.0000 </r>
       <r>    2.5886    1.0000 </r>
       <r>    2.6278    1.0000 </r>
       <r>    2.6278    1.0000 </r>
       <r>    2.6583    1.0000 </r>
       <r>    2.6583    1.0000 </r>
       <r>    2.6887    1.0000 </r>
       <r>    2.6905    1.0000 </r>
       <r>    2.7075    1.0000 </r>
       <r>    2.7075    1.0000 </r>
       <r>    3.0271    1.0000 </r>
       <r>    3.3133    1.0000 </r>
       <r>    3.3134    1.0000 </r>
       <r>    3.3150    1.0000 </r>
[...]
       <r>    4.7912    1.0000 </r>
       <r>    4.8141    1.0000 </r>
       <r>    6.6771    0.0000 </r>
       <r>    6.6911    0.0000 </r>
       <r>    6.6911    0.0000 </r>
       <r>    6.7133    0.0000 </r>
       <r>    7.3297    0.0000 </r>
       <r>    7.3536    0.0000 </r>
       <r>    7.3536    0.0000 </r>
       <r>    7.3719    0.0000 </r>
       <r>    7.9655    0.0000 </r>
       <r>    7.9980    0.0000 </r>
       <r>    7.9980    0.0000 </r>
       <r>    8.0067    0.0000 </r>
       <r>    8.1437    0.0000 </r>
       <r>    8.1437    0.0000 </r>
       <r>    8.1748    0.0000 </r>
       <r>    8.1766    0.0000 </r>
       <r>    8.2637    0.0000 </r>
       <r>    8.2701    0.0000 </r>
       <r>    8.2973    0.0000 </r>
       <r>    8.2973    0.0000 </r>
       <r>    8.3129    0.0000 </r>
       <r>    8.3129    0.0000 </r>
       <r>    8.3157    0.0000 </r>
       <r>    8.3505    0.0000 </r>
       <r>    8.9053    0.0000 </r>
       <r>    8.9053    0.0000 </r>
       <r>    8.9158    0.0000 </r>
       <r>    8.9194    0.0000 </r>
       <r>    9.0577    0.0000 </r>
       <r>    9.0677    0.0000 </r>
       <r>    9.0677    0.0000 </r>
       <r>    9.1018    0.0000 </r>
       <r>    9.6258    0.0000 </r>
       <r>    9.6258    0.0000 </r>
       <r>    9.6682    0.0000 </r>
       <r>    9.6958    0.0000 </r>
       <r>    9.7121    0.0000 </r>
       <r>    9.7598    0.0000 </r>
       <r>    9.7651    0.0000 </r>
       <r>    9.7849    0.0000 </r>
      </set>
     </set>
    </set>
   </array>
  </eigenvalues>
  <separator name="orbital magnetization" >
   <v name="MAGDIPOLOUT">      0.00000000      0.00000000      0.00000000</v>
  </separator>
  <dos>
   <i name="efermi">      5.44934343 </i>
   <total>
    <array>
     <dimension dim="1">gridpoints</dimension>
     <dimension dim="2">spin</dimension>
     <field>energy</field>
     <field>total</field>
     <field>integrated</field>
     <set>
      <set comment="spin 1">
       <r>   -19.3819     0.0000     0.0000 </r>
       <r>   -19.2797     0.0000     0.0000 </r>
       <r>   -19.1775     0.0000     0.0000 </r>
       <r>   -19.0753     0.0000     0.0000 </r>
       <r>   -18.9731     0.0000     0.0000 </r>
       <r>   -18.8709     0.0000     0.0000 </r>
       <r>   -18.7688     0.0000     0.0000 </r>
       <r>   -18.6666     0.0000     0.0000 </r>
       <r>   -18.5644     0.0000     0.0000 </r>
       <r>   -18.4622     0.0000     0.0000 </r>
       <r>   -18.3600     0.0000     0.0000 </r>
       <r>   -18.2578     0.0000     0.0000 </r>
       <r>   -18.1557     0.0000     0.0000 </r>
       <r>   -18.0535     2.1803     0.2228 </r>
       <r>   -17.9513   148.1102    15.3573 </r>
       <r>   -17.8491   582.7346    74.9033 </r>
       <r>   -17.7469   807.1201   157.3780 </r>
       <r>   -17.6447    25.6579   159.9998 </r>
       <r>   -17.5426     0.0018   160.0000 </r>
       <r>   -17.4404     0.0000   160.0000 </r>
       <r>   -17.3382     0.0000   160.0000 </r>
       <r>   -17.2360     0.0000   160.0000 </r>
       <r>   -17.1338     0.0000   160.0000 </r>
       <r>   -17.0316     0.0000   160.0000 </r>
       <r>   -16.9294     0.0000   160.0000 </r>
       <r>   -16.8273     0.0000   160.0000 </r>
       <r>   -16.7251     0.0000   160.0000 </r>
       <r>   -16.6229     0.0000   160.0000 </r>
       <r>   -16.5207     0.0000   160.0000 </r>
       <r>   -16.4185     0.0000   160.0000 </r>
       <r>   -16.3163     0.0000   160.0000 </r>
       <r>   -16.2142     0.0000   160.0000 </r>
       <r>   -16.1120     0.0000   160.0000 </r>
       <r>   -16.0098     0.0000   160.0000 </r>
       <r>   -15.9076     0.0000   160.0000 </r>
       <r>   -15.8054     0.0000   160.0000 </r>
       <r>   -15.7032     0.0000   160.0000 </r>
       <r>   -15.6011     0.0000   160.0000 </r>
       <r>   -15.4989     0.0000   160.0000 </r>
       <r>   -15.3967     0.0000   160.0000 </r>
       <r>   -15.2945     0.0000   160.0000 </r>
       <r>   -15.1923     0.0000   160.0000 </r>
       <r>   -15.0901     0.0000   160.0000 </r>
       <r>   -14.9880     0.0000   160.0000 </r>
       <r>   -14.8858     0.0000   160.0000 </r>
       <r>   -14.7836     0.0000   160.0000 </r>
       <r>   -14.6814     0.0000   160.0000 </r>
       <r>   -14.5792     0.0000   160.0000 </r>
       <r>   -14.4770     0.0000   160.0000 </r>
       <r>   -14.3749     0.0000   160.0000 </r>
       <r>   -14.2727     0.0000   160.0000 </r>
       <r>   -14.1705     0.0000   160.0000 </r>
       <r>   -14.0683     0.0000   160.0000 </r>
       <r>   -13.9661     0.0000   160.0000 </r>
       <r>   -13.8639     0.0052   160.0005 </r>
       <r>   -13.7617     1.3291   160.1363 </r>
       <r>   -13.6596     8.3752   160.9922 </r>
       <r>   -13.5574    11.0512   162.1214 </r>
       <r>   -13.4552     4.8898   162.6211 </r>
       <r>   -13.3530    18.6553   164.5273 </r>
       <r>   -13.2508     7.2175   165.2648 </r>
       <r>   -13.1486     6.7496   165.9545 </r>
       <r>   -13.0465    17.9119   167.7849 </r>
       <r>   -12.9443    14.8408   169.3013 </r>
       <r>   -12.8421    15.6328   170.8988 </r>
       <r>   -12.7399     4.4007   171.3484 </r>
       <r>   -12.6377    29.1278   174.3248 </r>
       <r>   -12.5355    25.5935   176.9401 </r>
       <r>   -12.4334    23.0913   179.2996 </r>
       <r>   -12.3312    21.9041   181.5379 </r>
       <r>   -12.2290    40.3804   185.6641 </r>
       <r>   -12.1268     6.2249   186.3002 </r>
       <r>   -12.0246    22.8418   188.6343 </r>
       <r>   -11.9224    13.4966   190.0134 </r>
       <r>   -11.8203    15.7007   191.6178 </r>
       <r>   -11.7181     3.7109   191.9969 </r>
       <r>   -11.6159     0.0299   192.0000 </r>
       <r>   -11.5137     0.0000   192.0000 </r>
       <r>   -11.4115     0.0000   192.0000 </r>
       <r>   -11.3093     0.0000   192.0000 </r>
       <r>   -11.2072     0.0000   192.0000 </r>
       <r>   -11.1050     0.0000   192.0000 </r>
       <r>   -11.0028     0.0000   192.0000 </r>
       <r>   -10.9006     0.0000   192.0000 </r>
       <r>   -10.7984     0.0000   192.0000 </r>
       <r>   -10.6962     0.0000   192.0000 </r>
       <r>   -10.5940     0.0000   192.0000 </r>
       <r>   -10.4919     0.0000   192.0000 </r>
       <r>   -10.3897     0.0000   192.0000 </r>
       <r>   -10.2875     0.0000   192.0000 </r>
       <r>   -10.1853     0.0000   192.0000 </r>
       <r>   -10.0831     0.0000   192.0000 </r>
       <r>    -9.9809     0.0000   192.0000 </r>
       <r>    -9.8788     0.0000   192.0000 </r>
       <r>    -9.7766     0.0000   192.0000 </r>
       <r>    -9.6744     0.0000   192.0000 </r>
       <r>    -9.5722     0.0000   192.0000 </r>
       <r>    -9.4700     0.0000   192.0000 </r>
       <r>    -9.3678     0.0000   192.0000 </r>
       <r>    -9.2657     0.0000   192.0000 </r>
       <r>    -9.1635     0.0000   192.0000 </r>
       <r>    -9.0613     0.0000   192.0000 </r>
       <r>    -8.9591     0.0000   192.0000 </r>
       <r>    -8.8569     0.0000   192.0000 </r>
       <r>    -8.7547     0.0000   192.0000 </r>
       <r>    -8.6526     0.0000   192.0000 </r>
       <r>    -8.5504     0.0000   192.0000 </r>
       <r>    -8.4482     0.0000   192.0000 </r>
       <r>    -8.3460     0.0000   192.0000 </r>
       <r>    -8.2438     0.0000   192.0000 </r>
       <r>    -8.1416     0.0000   192.0000 </r>
       <r>    -8.0395     0.0000   192.0000 </r>
       <r>    -7.9373     0.0000   192.0000 </r>
       <r>    -7.8351     0.0000   192.0000 </r>
       <r>    -7.7329     0.0000   192.0000 </r>
       <r>    -7.6307     0.0000   192.0000 </r>
       <r>    -7.5285     0.0000   192.0000 </r>
       <r>    -7.4263     0.0000   192.0000 </r>
       <r>    -7.3242     0.0000   192.0000 </r>
       <r>    -7.2220     0.0000   192.0000 </r>
       <r>    -7.1198     0.0000   192.0000 </r>
       <r>    -7.0176     0.0000   192.0000 </r>
       <r>    -6.9154     0.0149   192.0015 </r>
       <r>    -6.8132     0.5711   192.0599 </r>
       <r>    -6.7111     3.3107   192.3982 </r>
       <r>    -6.6089     5.4762   192.9578 </r>
       <r>    -6.5067     4.4248   193.4099 </r>
       <r>    -6.4045    13.0238   194.7407 </r>
       <r>    -6.3023     8.9062   195.6508 </r>
       <r>    -6.2001    10.7054   196.7447 </r>
       <r>    -6.0980    11.3308   197.9025 </r>
       <r>    -5.9958    15.5853   199.4951 </r>
       <r>    -5.8936    17.5601   201.2895 </r>
       <r>    -5.7914    16.9264   203.0191 </r>
       <r>    -5.6892    19.8145   205.0438 </r>
       <r>    -5.5870    24.6057   207.5581 </r>
       <r>    -5.4849    14.7931   209.0697 </r>
       <r>    -5.3827    32.8656   212.4280 </r>
       <r>    -5.2805    32.7796   215.7776 </r>
       <r>    -5.1783    42.0278   220.0721 </r>
       <r>    -5.0761    41.2368   224.2859 </r>
       <r>    -4.9739     9.6350   225.2704 </r>
       <r>    -4.8718    19.5503   227.2681 </r>
       <r>    -4.7696    24.5797   229.7798 </r>
       <r>    -4.6674     7.5522   230.5515 </r>
       <r>    -4.5652    10.4323   231.6175 </r>
       <r>    -4.4630    13.6811   233.0155 </r>
       <r>    -4.3608    11.2496   234.1650 </r>
       <r>    -4.2586     5.6887   234.7463 </r>
       <r>    -4.1565     0.0383   234.7503 </r>
       <r>    -4.0543     2.6290   235.0189 </r>
       <r>    -3.9521    15.6721   236.6203 </r>
       <r>    -3.8499     8.2707   237.4655 </r>
       <r>    -3.7477     3.3169   237.8044 </r>
       <r>    -3.6455     3.2263   238.1341 </r>
       <r>    -3.5434     4.1667   238.5598 </r>
       <r>    -3.4412     6.6227   239.2366 </r>
       <r>    -3.3390     2.8156   239.5243 </r>
       <r>    -3.2368     3.1691   239.8481 </r>
       <r>    -3.1346     0.7215   239.9218 </r>
       <r>    -3.0324     0.6527   239.9885 </r>
       <r>    -2.9303     0.1123   240.0000 </r>
       <r>    -2.8281     0.0001   240.0000 </r>
       <r>    -2.7259     0.0000   240.0000 </r>
       <r>    -2.6237     0.0000   240.0000 </r>
       <r>    -2.5215     0.0000   240.0000 </r>
       <r>    -2.4193     0.0000   240.0000 </r>
       <r>    -2.3172     0.0000   240.0000 </r>
       <r>    -2.2150     0.0000   240.0000 </r>
       <r>    -2.1128     0.0000   240.0000 </r>
       <r>    -2.0106     0.0000   240.0000 </r>
       <r>    -1.9084     0.0000   240.0000 </r>
       <r>    -1.8062     0.0000   240.0000 </r>
       <r>    -1.7041     0.0000   240.0000 </r>
       <r>    -1.6019     0.0000   240.0000 </r>
       <r>    -1.4997     0.0000   240.0000 </r>
       <r>    -1.3975     0.0000   240.0000 </r>
       <r>    -1.2953     0.0000   240.0000 </r>
       <r>    -1.1931     0.0000   240.0000 </r>
       <r>    -1.0909     0.0000   240.0000 </r>
       <r>    -0.9888     0.0000   240.0000 </r>
       <r>    -0.8866     0.0000   240.0000 </r>
       <r>    -0.7844     0.0000   240.0000 </r>
       <r>    -0.6822     0.0000   240.0000 </r>
       <r>    -0.5800     0.0000   240.0000 </r>
       <r>    -0.4778     0.0000   240.0000 </r>
       <r>    -0.3757     0.2104   240.0215 </r>
       <r>    -0.2735     4.1437   240.4449 </r>
       <r>    -0.1713    13.8573   241.8609 </r>
       <r>    -0.0691    30.0246   244.9289 </r>
       <r>     0.0331    36.6848   248.6775 </r>
       <r>     0.1353    36.2955   252.3863 </r>
       <r>     0.2374    17.8806   254.2135 </r>
       <r>     0.3396    21.2449   256.3843 </r>
       <r>     0.4418    24.0676   258.8437 </r>
       <r>     0.5440    19.9944   260.8868 </r>
       <r>     0.6462    15.5198   262.4726 </r>
       <r>     0.7484    29.3374   265.4704 </r>
       <r>     0.8505    23.2724   267.8485 </r>
       <r>     0.9527    17.1158   269.5975 </r>
       <r>     1.0549    12.3910   270.8636 </r>
       <r>     1.1571    11.8595   272.0755 </r>
       <r>     1.2593    41.6408   276.3305 </r>
       <r>     1.3615    27.5559   279.1463 </r>
       <r>     1.4636    16.7808   280.8610 </r>
       <r>     1.5658    27.0258   283.6226 </r>
       <r>     1.6680    30.3755   286.7265 </r>
       <r>     1.7702    47.0400   291.5332 </r>
       <r>     1.8724    45.2088   296.1528 </r>
       <r>     1.9746    32.1508   299.4381 </r>
       <r>     2.0768    21.8060   301.6663 </r>
       <r>     2.1789    26.2076   304.3443 </r>
       <r>     2.2811    30.6335   307.4746 </r>
       <r>     2.3833    21.3041   309.6515 </r>
       <r>     2.4855    13.2819   311.0087 </r>
       <r>     2.5877    34.1023   314.4934 </r>
       <r>     2.6899    48.7248   319.4723 </r>
       <r>     2.7920    25.7943   322.1081 </r>
       <r>     2.8942    33.8790   325.5699 </r>
       <r>     2.9964    34.6894   329.1146 </r>
       <r>     3.0986    29.5017   332.1292 </r>
       <r>     3.2008    13.8994   333.5495 </r>
       <r>     3.3030    18.2220   335.4115 </r>
       <r>     3.4051    18.2334   337.2747 </r>
       <r>     3.5073     6.3411   337.9226 </r>
       <r>     3.6095     9.0752   338.8500 </r>
       <r>     3.7117    12.0944   340.0858 </r>
       <r>     3.8139    17.0807   341.8312 </r>
       <r>     3.9161    15.6301   343.4283 </r>
       <r>     4.0182    15.5352   345.0158 </r>
       <r>     4.1204    19.7415   347.0331 </r>
       <r>     4.2226    37.0472   350.8187 </r>
       <r>     4.3248    65.7683   357.5391 </r>
       <r>     4.4270    54.0897   363.0662 </r>
       <r>     4.5292    52.6444   368.4456 </r>
       <r>     4.6313    40.7179   372.6064 </r>
       <r>     4.7335    19.6051   374.6097 </r>
       <r>     4.8357    16.2460   376.2698 </r>
       <r>     4.9379    35.6066   379.9082 </r>
       <r>     5.0401    18.8240   381.8317 </r>
       <r>     5.1423     5.5669   382.4005 </r>
       <r>     5.2445     5.4873   382.9613 </r>
       <r>     5.3466     6.6392   383.6397 </r>
       <r>     5.4488     3.5184   383.9992 </r>
       <r>     5.5510     0.4749   384.0477 </r>
       <r>     5.6532     0.6954   384.1188 </r>
       <r>     5.7554     0.0743   384.1264 </r>
       <r>     5.8576     0.7474   384.2027 </r>
       <r>     5.9597     0.4695   384.2507 </r>
       <r>     6.0619     0.5981   384.3118 </r>
       <r>     6.1641     0.2313   384.3355 </r>
       <r>     6.2663     1.3484   384.4733 </r>
       <r>     6.3685     4.1583   384.8982 </r>
       <r>     6.4707     3.6635   385.2725 </r>
       <r>     6.5728     5.3947   385.8238 </r>
       <r>     6.6750     6.0518   386.4422 </r>
       <r>     6.7772     6.8385   387.1410 </r>
       <r>     6.8794    13.8307   388.5542 </r>
       <r>     6.9816     8.8233   389.4558 </r>
       <r>     7.0838    11.7247   390.6539 </r>
       <r>     7.1859     4.7948   391.1438 </r>
       <r>     7.2881    16.3462   392.8142 </r>
       <r>     7.3903    30.7441   395.9557 </r>
       <r>     7.4925    24.1032   398.4187 </r>
       <r>     7.5947    25.5064   401.0250 </r>
       <r>     7.6969    28.2896   403.9158 </r>
       <r>     7.7990    30.2650   407.0083 </r>
       <r>     7.9012    14.5345   408.4935 </r>
       <r>     8.0034    18.0134   410.3342 </r>
       <r>     8.1056    22.2825   412.6111 </r>
       <r>     8.2078    22.8823   414.9493 </r>
       <r>     8.3100    30.2659   418.0420 </r>
       <r>     8.4122    34.1108   421.5276 </r>
       <r>     8.5143    28.4246   424.4321 </r>
       <r>     8.6165    25.4545   427.0331 </r>
       <r>     8.7187    35.2090   430.6309 </r>
       <r>     8.8209    30.4228   433.7397 </r>
       <r>     8.9231    30.4258   436.8487 </r>
       <r>     9.0253    25.2947   439.4334 </r>
       <r>     9.1274    26.1484   442.1053 </r>
       <r>     9.2296    21.9971   444.3531 </r>
       <r>     9.3318    12.8601   445.6672 </r>
       <r>     9.4340    25.3854   448.2612 </r>
       <r>     9.5362    48.7579   453.2434 </r>
       <r>     9.6384    46.4611   457.9910 </r>
       <r>     9.7405    36.4429   461.7149 </r>
       <r>     9.8427    17.3430   463.4871 </r>
       <r>     9.9449     4.9106   463.9889 </r>
       <r>    10.0471     0.1090   464.0000 </r>
       <r>    10.1493     0.0000   464.0000 </r>
       <r>    10.2515     0.0000   464.0000 </r>
       <r>    10.3536     0.0000   464.0000 </r>
       <r>    10.4558     0.0000   464.0000 </r>
       <r>    10.5580     0.0000   464.0000 </r>
       <r>    10.6602     0.0000   464.0000 </r>
       <r>    10.7624     0.0000   464.0000 </r>
       <r>    10.8646     0.0000   464.0000 </r>
       <r>    10.9667     0.0000   464.0000 </r>
       <r>    11.0689     0.0000   464.0000 </r>
       <r>    11.1711     0.0000   464.0000 </r>
       <r>    11.2733     0.0000   464.0000 </r>
      </set>
     </set>
    </array>
   </total>
  </dos>
 </calculation>
 <structure name="finalpos" >
  <crystal>
   <varray name="basis" >
    <v>       8.11456462       0.00000000       0.00000000 </v>
    <v>       0.00000000       8.11456462       0.00000000 </v>
    <v>       0.00000000       0.00000000      12.80574637 </v>
   </varray>
   <i name="volume">    843.20921025 </i>
   <varray name="rec_basis" >
    <v>       0.12323520       0.00000000       0.00000000 </v>
    <v>       0.00000000       0.12323520       0.00000000 </v>
    <v>       0.00000000       0.00000000       0.07808994 </v>
   </varray>
  </crystal>
  <varray name="positions" >
   <v>       0.24847944       0.24847944       0.84918926 </v>
   <v>       0.75152056       0.24847944       0.84918926 </v>
   <v>       0.24847944       0.75152056       0.84918926 </v>
   <v>       0.75152056       0.75152056       0.84918926 </v>
   <v>       0.00000000       0.00000000       0.64992530 </v>
   <v>       0.50000000       0.00000000       0.65306589 </v>
   <v>       0.00000000       0.50000000       0.65306589 </v>
   <v>       0.50000000       0.50000000       0.65585717 </v>
   <v>       0.00000000       0.00000000       0.35007470 </v>
   <v>       0.50000000       0.00000000       0.34693411 </v>
   <v>       0.00000000       0.50000000       0.34693411 </v>
   <v>       0.50000000       0.50000000       0.34414283 </v>
   <v>       0.24847944       0.24847944       0.15081074 </v>
   <v>       0.75152056       0.24847944       0.15081074 </v>
   <v>       0.24847944       0.75152056       0.15081074 </v>
   <v>       0.75152056       0.75152056       0.15081074 </v>
   <v>       0.50000000       0.00000000       0.00000000 </v>
   <v>       0.00000000       0.50000000       0.00000000 </v>
   <v>       0.50000000       0.50000000       0.00000000 </v>
   <v>       0.24553156       0.24553156       0.50000000 </v>
   <v>       0.75446844       0.24553156       0.50000000 </v>
   <v>       0.24553156       0.75446844       0.50000000 </v>
   <v>       0.75446844       0.75446844       0.50000000 </v>
   <v>       0.00000000       0.25069313       0.75112472 </v>
   <v>       0.50000000       0.25069888       0.75104370 </v>
   <v>       0.00000000       0.74930687       0.75112472 </v>
   <v>       0.50000000       0.74930112       0.75104370 </v>
   <v>       0.25069313       0.00000000       0.75112472 </v>
   <v>       0.74930687       0.00000000       0.75112472 </v>
   <v>       0.25069888       0.50000000       0.75104370 </v>
   <v>       0.74930112       0.50000000       0.75104370 </v>
   <v>       0.25069313       0.00000000       0.24887528 </v>
   <v>       0.74930687       0.00000000       0.24887528 </v>
   <v>       0.25069888       0.50000000       0.24895630 </v>
   <v>       0.74930112       0.50000000       0.24895630 </v>
   <v>       0.00000000       0.25069313       0.24887528 </v>
   <v>       0.50000000       0.25069888       0.24895630 </v>
   <v>       0.00000000       0.74930687       0.24887528 </v>
   <v>       0.50000000       0.74930112       0.24895630 </v>
   <v>       0.00000000       0.00000000       0.00000000 </v>
  </varray>
 </structure>
</modeling>
