unknown system                          
           1
     8.114565    0.000000    0.000000
     0.000000    8.114565    0.000000
     0.000000    0.000000   12.805746
   Bi   Se   O    S 
    16     7    16     1
Direct configuration=     1
   0.24847935  0.24847935  0.84918915
   0.75152065  0.24847935  0.84918915
   0.24847935  0.75152065  0.84918915
   0.75152065  0.75152065  0.84918915
   0.00000000  0.00000000  0.64992540
   0.50000000  0.00000000  0.65306606
   0.00000000  0.50000000  0.65306606
   0.50000000  0.50000000  0.65585736
   0.00000000  0.00000000  0.35007460
   0.50000000  0.00000000  0.34693394
   0.00000000  0.50000000  0.34693394
   0.50000000  0.50000000  0.34414264
   0.24847935  0.24847935  0.15081085
   0.75152065  0.24847935  0.15081085
   0.24847935  0.75152065  0.15081085
   0.75152065  0.75152065  0.15081085
   0.50000000  0.00000000  0.00000000
   0.00000000  0.50000000  0.00000000
   0.50000000  0.50000000  0.00000000
   0.24553148  0.24553148  0.50000000
   0.75446852  0.24553148  0.50000000
   0.24553148  0.75446852  0.50000000
   0.75446852  0.75446852  0.50000000
   0.00000000  0.25069316  0.75112474
   0.50000000  0.25069891  0.75104370
   0.00000000  0.74930684  0.75112474
   0.50000000  0.74930109  0.75104370
   0.25069316  0.00000000  0.75112474
   0.74930684  0.00000000  0.75112474
   0.25069891  0.50000000  0.75104370
   0.74930109  0.50000000  0.75104370
   0.25069316  0.00000000  0.24887526
   0.74930684  0.00000000  0.24887526
   0.25069891  0.50000000  0.24895630
   0.74930109  0.50000000  0.24895630
   0.00000000  0.25069316  0.24887526
   0.50000000  0.25069891  0.24895630
   0.00000000  0.74930684  0.24887526
   0.50000000  0.74930109  0.24895630
   0.00000000  0.00000000  0.00000000
Direct configuration=     2
   0.24847954  0.24847954  0.84918938
   0.75152046  0.24847954  0.84918938
   0.24847954  0.75152046  0.84918938
   0.75152046  0.75152046  0.84918938
   0.00000000  1.00000000  0.64992519
   0.50000000  1.00000000  0.65306570
   0.00000000  0.50000000  0.65306570
   0.50000000  0.50000000  0.65585697
   0.00000000  1.00000000  0.35007481
   0.50000000  1.00000000  0.34693430
   0.00000000  0.50000000  0.34693430
   0.50000000  0.50000000  0.34414303
   0.24847954  0.24847954  0.15081062
   0.75152046  0.24847954  0.15081062
   0.24847954  0.75152046  0.15081062
   0.75152046  0.75152046  0.15081062
   0.50000000  1.00000000  0.00000000
   0.00000000  0.50000000  0.00000000
   0.50000000  0.50000000  0.00000000
   0.24553164  0.24553164  0.50000000
   0.75446836  0.24553164  0.50000000
   0.24553164  0.75446836  0.50000000
   0.75446836  0.75446836  0.50000000
   0.00000000  0.25069310  0.75112470
   0.50000000  0.25069885  0.75104369
   0.00000000  0.74930690  0.75112470
   0.50000000  0.74930115  0.75104369
   0.25069310  1.00000000  0.75112470
   0.74930690  1.00000000  0.75112470
   0.25069885  0.50000000  0.75104369
   0.74930115  0.50000000  0.75104369
   0.25069310  1.00000000  0.24887530
   0.74930690  1.00000000  0.24887530
   0.25069885  0.50000000  0.24895631
   0.74930115  0.50000000  0.24895631
   0.00000000  0.25069310  0.24887530
   0.50000000  0.25069885  0.24895631
   0.00000000  0.74930690  0.24887530
   0.50000000  0.74930115  0.24895631
   0.00000000  1.00000000  0.00000000
Direct configuration=     3
   0.24847943  0.24847943  0.84918924
   0.75152057  0.24847943  0.84918924
   0.24847943  0.75152057  0.84918924
   0.75152057  0.75152057  0.84918924
   0.00000000  0.00000000  0.64992532
   0.50000000  0.00000000  0.65306592
   0.00000000  0.50000000  0.65306592
   0.50000000  0.50000000  0.65585721
   0.00000000  0.00000000  0.35007468
   0.50000000  0.00000000  0.34693408
   0.00000000  0.50000000  0.34693408
   0.50000000  0.50000000  0.34414279
   0.24847943  0.24847943  0.15081076
   0.75152057  0.24847943  0.15081076
   0.24847943  0.75152057  0.15081076
   0.75152057  0.75152057  0.15081076
   0.50000000  0.00000000  0.00000000
   0.00000000  0.50000000  0.00000000
   0.50000000  0.50000000  0.00000000
   0.24553154  0.24553154  0.50000000
   0.75446846  0.24553154  0.50000000
   0.24553154  0.75446846  0.50000000
   0.75446846  0.75446846  0.50000000
   0.00000000  0.25069313  0.75112472
   0.50000000  0.25069889  0.75104370
   0.00000000  0.74930687  0.75112472
   0.50000000  0.74930111  0.75104370
   0.25069313  0.00000000  0.75112472
   0.74930687  0.00000000  0.75112472
   0.25069889  0.50000000  0.75104370
   0.74930111  0.50000000  0.75104370
   0.25069313  0.00000000  0.24887528
   0.74930687  0.00000000  0.24887528
   0.25069889  0.50000000  0.24895630
   0.74930111  0.50000000  0.24895630
   0.00000000  0.25069313  0.24887528
   0.50000000  0.25069889  0.24895630
   0.00000000  0.74930687  0.24887528
   0.50000000  0.74930111  0.24895630
   0.00000000  0.00000000  0.00000000
Direct configuration=     4
   0.24847946  0.24847946  0.84918928
   0.75152054  0.24847946  0.84918928
   0.24847946  0.75152054  0.84918928
   0.75152054  0.75152054  0.84918928
   0.00000000  1.00000000  0.64992528
   0.50000000  1.00000000  0.65306585
   0.00000000  0.50000000  0.65306585
   0.50000000  0.50000000  0.65585714
   0.00000000  1.00000000  0.35007472
   0.50000000  1.00000000  0.34693415
   0.00000000  0.50000000  0.34693415
   0.50000000  0.50000000  0.34414286
   0.24847946  0.24847946  0.15081072
   0.75152054  0.24847946  0.15081072
   0.24847946  0.75152054  0.15081072
   0.75152054  0.75152054  0.15081072
   0.50000000  1.00000000  0.00000000
   0.00000000  0.50000000  0.00000000
   0.50000000  0.50000000  0.00000000
   0.24553157  0.24553157  0.50000000
   0.75446843  0.24553157  0.50000000
   0.24553157  0.75446843  0.50000000
   0.75446843  0.75446843  0.50000000
   0.00000000  0.25069312  0.75112472
   0.50000000  0.25069887  0.75104370
   0.00000000  0.74930688  0.75112472
   0.50000000  0.74930113  0.75104370
   0.25069312  1.00000000  0.75112472
   0.74930688  1.00000000  0.75112472
   0.25069887  0.50000000  0.75104370
   0.74930113  0.50000000  0.75104370
   0.25069312  1.00000000  0.24887528
   0.74930688  1.00000000  0.24887528
   0.25069887  0.50000000  0.24895630
   0.74930113  0.50000000  0.24895630
   0.00000000  0.25069312  0.24887528
   0.50000000  0.25069887  0.24895630
   0.00000000  0.74930688  0.24887528
   0.50000000  0.74930113  0.24895630
   0.00000000  1.00000000  0.00000000
Direct configuration=     5
   0.24847944  0.24847944  0.84918926
   0.75152056  0.24847944  0.84918926
   0.24847944  0.75152056  0.84918926
   0.75152056  0.75152056  0.84918926
   0.00000000  0.00000000  0.64992530
   0.50000000  0.00000000  0.65306589
   0.00000000  0.50000000  0.65306589
   0.50000000  0.50000000  0.65585717
   0.00000000  0.00000000  0.35007470
   0.50000000  0.00000000  0.34693411
   0.00000000  0.50000000  0.34693411
   0.50000000  0.50000000  0.34414283
   0.24847944  0.24847944  0.15081074
   0.75152056  0.24847944  0.15081074
   0.24847944  0.75152056  0.15081074
   0.75152056  0.75152056  0.15081074
   0.50000000  0.00000000  0.00000000
   0.00000000  0.50000000  0.00000000
   0.50000000  0.50000000  0.00000000
   0.24553156  0.24553156  0.50000000
   0.75446844  0.24553156  0.50000000
   0.24553156  0.75446844  0.50000000
   0.75446844  0.75446844  0.50000000
   0.00000000  0.25069313  0.75112472
   0.50000000  0.25069888  0.75104370
   0.00000000  0.74930687  0.75112472
   0.50000000  0.74930112  0.75104370
   0.25069313  0.00000000  0.75112472
   0.74930687  0.00000000  0.75112472
   0.25069888  0.50000000  0.75104370
   0.74930112  0.50000000  0.75104370
   0.25069313  0.00000000  0.24887528
   0.74930687  0.00000000  0.24887528
   0.25069888  0.50000000  0.24895630
   0.74930112  0.50000000  0.24895630
   0.00000000  0.25069313  0.24887528
   0.50000000  0.25069888  0.24895630
   0.00000000  0.74930687  0.24887528
   0.50000000  0.74930112  0.24895630
   0.00000000  0.00000000  0.00000000
